EMIm+ and BF4-
24000
    1EMI     N1    1   5.067   5.861   2.924 -0.2566 -0.1745 -0.4541
    1EMI     C2    2   4.983   5.783   2.861  0.0828 -0.5806 -0.0716
    1EMI     N3    3   4.855   5.831   2.868 -0.4376 -0.3015 -0.3473
    1EMI     C4    4   4.862   5.946   2.943  0.0282 -0.5086  0.7901
    1EMI     C5    5   4.993   5.967   2.975  0.2926  0.0630  0.1453
    1EMI     H2    6   5.010   5.691   2.822  0.5767 -0.2509  2.0301
    1EMI     H4    7   4.778   6.015   2.965 -0.8329  1.4431 -1.2511
    1EMI     H5    8   5.029   6.056   3.032 -0.8338  1.1864  0.5814
    1EMI    C1'    9   4.728   5.775   2.811  0.5443 -0.4606 -0.2855
    1EMI    H1'   10   4.654   5.761   2.893  0.7368 -0.0513  0.5844
    1EMI    H1'   11   4.681   5.844   2.746  2.2461  0.8082 -1.3242
    1EMI    H1'   12   4.755   5.690   2.754 -0.9353  0.2410  0.7703
    1EMI    C1"   13   5.214   5.852   2.945 -0.4925 -0.1075  0.0866
    1EMI    H1"   14   5.239   5.880   3.044 -0.2363  1.2175  0.6270
    1EMI    H1"   15   5.271   5.916   2.883 -1.1443 -1.3986  1.3903
    1EMI    C2"   16   5.264   5.705   2.917  0.2127  1.0282 -0.1392
    1EMI    H2"   17   5.368   5.689   2.960 -1.4520 -2.3147  1.2203
    1EMI    H2"   18   5.196   5.624   2.953 -0.9589 -0.4294 -3.4505
    1EMI    H2"   19   5.270   5.691   2.811  0.1902  1.4818  1.3522
    2EMI     N1   20   0.437   3.380   1.234 -0.5810  0.3617 -0.9882
    2EMI     C2   21   0.323   3.441   1.203 -0.1830 -0.6512 -0.2944
    2EMI     N3   22   0.223   3.357   1.227  0.7665 -0.5955 -0.0666
    2EMI     C4   23   0.270   3.244   1.281 -0.6294  0.1831 -0.0680
    2EMI     C5   24   0.400   3.252   1.283  0.1260 -0.5916  0.6663
    2EMI     H2   25   0.305   3.541   1.168  1.8065 -0.4977 -0.5195
    2EMI     H4   26   0.213   3.156   1.323 -0.1310  1.1190  4.3029
    2EMI     H5   27   0.474   3.174   1.319  1.7350  0.1697 -0.0373
    2EMI    C1'   28   0.076   3.377   1.225 -0.5709 -0.1153 -0.4860
    2EMI    H1'   29   0.057   3.487   1.241 -0.9292 -0.2621  1.2357
    2EMI    H1'   30   0.034   3.342   1.126  0.0518  1.4228 -0.5516
    2EMI    H1'   31   0.024   3.323   1.299 -0.8540  0.7222  1.2883
    2EMI    C1"   32   0.575   3.419   1.220  0.1225  0.2804 -0.4786
    2EMI    H1"   33   0.645   3.328   1.215  0.7577 -1.1783  0.4359
    2EMI    H1"   34   0.606   3.487   1.305  0.1291 -0.8572  1.1561
    2EMI    C2"   35   0.595   3.508   1.097 -0.2944 -0.3462 -0.1949
    2EMI    H2"   36   0.536   3.591   1.121 -2.6878  0.0686  0.1105
    2EMI    H2"   37   0.696   3.555   1.075 -0.1800  0.5142 -0.6791
    2EMI    H2"   38   0.554   3.463   1.008 -0.3957 -0.7501 -0.1507
    3EMI     N1   39   0.905   1.842   0.401  0.1977 -0.4037 -0.1783
    3EMI     C2   40   0.831   1.889   0.501  0.8559 -0.3515 -0.5348
    3EMI     N3   41   0.738   1.801   0.540  0.4712 -0.5738  0.3597
    3EMI     C4   42   0.764   1.687   0.464  0.2575  0.0056 -0.3875
    3EMI     C5   43   0.866   1.711   0.377 -0.8425  0.1498  0.7981
    3EMI     H2   44   0.830   1.992   0.533 -1.5835 -3.8909  1.7988
    3EMI     H4   45   0.704   1.595   0.466 -0.4096 -0.9854  3.3970
    3EMI     H5   46   0.907   1.642   0.299 -0.7946 -0.9827  1.2570
    3EMI    C1'   47   0.637   1.810   0.647  0.3416 -0.3045 -0.0642
    3EMI    H1'   48   0.554   1.741   0.629 -0.6808  0.5442 -1.5922
    3EMI    H1'   49   0.691   1.799   0.737 -0.1915  1.7470 -2.3662
    3EMI    H1'   50   0.597   1.910   0.640  1.1410  0.2276 -1.8115
    3EMI    C1"   51   1.008   1.896   0.312  0.2760  0.0305 -0.5903
    3EMI    H1"   52   1.066   1.813   0.268 -3.0188  0.6845  1.0221
    3EMI    H1"   53   1.065   1.954   0.382  1.5151  0.3723  0.2885
    3EMI    C2"   54   0.952   1.990   0.206 -1.1152 -0.5089 -0.7887
    3EMI    H2"   55   0.871   1.938   0.158  0.8820 -2.9663  1.9172
    3EMI    H2"   56   0.918   2.079   0.259  2.2169 -0.5770 -1.0498
    3EMI    H2"   57   1.026   2.010   0.123 -0.3603  1.8729 -0.3014
    4EMI     N1   58   1.965   1.276   4.739  0.0800 -0.0183  1.1346
    4EMI     C2   59   1.990   1.151   4.697  0.4672  0.2278 -0.0689
    4EMI     N3   60   2.119   1.126   4.702  0.1804 -0.1766  0.3923
    4EMI     C4   61   2.182   1.238   4.752 -0.2079 -0.3152 -0.3127
    4EMI     C5   62   2.087   1.323   4.777 -0.0667  0.3483 -0.9259
    4EMI     H2   63   1.916   1.080   4.672  2.8707 -0.9851  5.0162
    4EMI     H4   64   2.286   1.250   4.776 -2.5557  1.1856 -0.7445
    4EMI     H5   65   2.105   1.415   4.829 -1.3340  0.8992  0.1344
    4EMI    C1'   66   2.196   0.997   4.680  0.3185  0.1319  0.4620
    4EMI    H1'   67   2.292   1.004   4.624 -0.5390 -1.6582  0.7500
    4EMI    H1'   68   2.210   0.948   4.773 -0.6994  1.1321  0.6249
    4EMI    H1'   69   2.129   0.938   4.609  1.1847 -0.6838 -1.6117
    4EMI    C1"   70   1.840   1.357   4.749  0.5445  0.7774  0.1016
    4EMI    H1"   71   1.802   1.379   4.648 -0.2054  2.0396 -1.9157
    4EMI    H1"   72   1.870   1.448   4.779  1.2009 -0.8698  1.8333
    4EMI    C2"   73   1.747   1.296   4.851 -0.4115 -0.2256 -0.1022
    4EMI    H2"   74   1.677   1.374   4.888  0.0052  0.7227  1.3149
    4EMI    H2"   75   1.699   1.210   4.809  2.7214 -0.7394  1.1592
    4EMI    H2"   76   1.798   1.258   4.945  0.2569  1.8605 -0.3303
    5EMI     N1   77   5.539   5.859   5.112 -0.1824 -0.4966  0.1547
    5EMI     C2   78   5.608   5.776   5.033 -0.4532  0.0550  0.3664
    5EMI     N3   79   5.636   5.662   5.098 -0.0399  0.2922  0.1249
    5EMI     C4   80   5.573   5.671   5.219 -0.3420 -1.0021 -0.7275
    5EMI     C5   81   5.517   5.793   5.231  0.1298 -0.0662  0.0324
    5EMI     H2   82   5.634   5.799   4.931  0.8076  0.5619  1.3596
    5EMI     H4   83   5.544   5.597   5.293 -1.7578  2.7712 -0.6537
    5EMI     H5   84   5.455   5.835   5.307  2.0850  1.5034  0.3129
    5EMI    C1'   85   5.713   5.537   5.058  0.1392 -0.7999 -0.1345
    5EMI    H1'   86   5.774   5.558   4.973 -2.0983 -1.7238  0.1551
    5EMI    H1'   87   5.780   5.512   5.139  1.1698  1.7310  0.2233
    5EMI    H1'   88   5.652   5.452   5.031 -1.5487  1.0097 -0.3223
    5EMI    C1"   89   5.493   6.000   5.091 -0.2903  0.8241 -0.0255
    5EMI    H1"   90   5.420   6.039   5.160 -1.1405 -1.4781 -2.4140
    5EMI    H1"   91   5.463   6.008   4.985 -0.8499  1.6565 -0.3539
    5EMI    C2"   92   5.603   6.101   5.106  0.6345 -0.2191  0.1436
    5EMI    H2"   93   5.686   6.063   5.055 -0.2798  0.1884 -0.0363
    5EMI    H2"   94   5.585   6.202   5.069  0.8972 -0.9394  0.9205
    5EMI    H2"   95   5.630   6.098   5.209 -1.0106 -0.6158 -2.0916
    6EMI     N1   96   4.401   4.430   3.345 -0.0840  0.6125  0.0951
    6EMI     C2   97   4.502   4.342   3.344  0.3106 -0.0404  0.2455
    6EMI     N3   98   4.454   4.218   3.333 -0.1883 -0.3561 -0.0203
    6EMI     C4   99   4.320   4.227   3.336 -0.5009 -0.0444  0.7860
    6EMI     C5  100   4.283   4.361   3.340 -0.3618  1.0589  0.5415
    6EMI     H2  101   4.607   4.375   3.355 -1.6993 -1.8134 -1.0120
    6EMI     H4  102   4.247   4.143   3.339 -2.3476  0.8417  1.8584
    6EMI     H5  103   4.186   4.408   3.337 -3.4592  0.4136 -3.1055
    6EMI    C1'  104   4.520   4.086   3.341 -0.5749 -0.2315  0.0462
    6EMI    H1'  105   4.628   4.095   3.318  0.7305 -0.0571 -0.9716
    6EMI    H1'  106   4.515   4.042   3.436 -0.1105  0.4132  3.8415
    6EMI    H1'  107   4.466   4.023   3.265 -0.0863 -2.6255 -2.0158
    6EMI    C1"  108   4.395   4.580   3.339  0.6985 -0.1134  0.1435
    6EMI    H1"  109   4.326   4.608   3.422  0.0496  4.0098  0.4086
    6EMI    H1"  110   4.346   4.612   3.254  0.8623  1.2411 -0.7054
    6EMI    C2"  111   4.523   4.655   3.350 -0.2044 -0.3254 -0.1417
    6EMI    H2"  112   4.601   4.626   3.281 -0.9474 -0.1652  1.3916
    6EMI    H2"  113   4.508   4.759   3.326 -1.3932 -0.8874 -0.5791
    6EMI    H2"  114   4.573   4.647   3.445  1.4860 -1.5016  0.2940
    7EMI     N1  115   0.721   0.607   4.575  0.7289  0.4176 -0.0386
    7EMI     C2  116   0.743   0.729   4.529 -0.8787  0.0383  0.4852
    7EMI     N3  117   0.653   0.758   4.432 -0.4253  0.1720  0.1126
    7EMI     C4  118   0.573   0.648   4.416 -0.0470  0.0991 -0.5410
    7EMI     C5  119   0.616   0.551   4.503 -0.1164 -0.1711 -0.1950
    7EMI     H2  120   0.827   0.784   4.575  4.2551 -0.5064  0.9506
    7EMI     H4  121   0.489   0.635   4.341 -0.1016 -0.3195  0.9246
    7EMI     H5  122   0.577   0.449   4.510 -0.6647  0.7255  1.2897
    7EMI    C1'  123   0.660   0.869   4.335  0.2389 -0.0067 -0.2578
    7EMI    H1'  124   0.649   0.838   4.233  0.2052  1.3789 -1.5025
    7EMI    H1'  125   0.580   0.940   4.359 -2.1511 -0.2280 -0.0114
    7EMI    H1'  126   0.760   0.909   4.341 -0.3730  0.5779 -0.8545
    7EMI    C1"  127   0.797   0.528   4.676  0.1553 -0.2211  0.5045
    7EMI    H1"  128   0.898   0.543   4.656  0.6282  1.0740  3.4224
    7EMI    H1"  129   0.761   0.426   4.671 -2.2529  0.6151 -0.2743
    7EMI    C2"  130   0.755   0.572   4.818  0.5628 -0.9139 -1.1691
    7EMI    H2"  131   0.651   0.563   4.828 -0.4565  0.1754 -0.6185
    7EMI    H2"  132   0.789   0.499   4.899 -0.6140 -3.0300  1.8330
    7EMI    H2"  133   0.791   0.676   4.839  0.9801  0.1933  0.4999
    8EMI     N1  134   5.469   0.109   1.921  0.0280  0.6876  0.6643
    8EMI     C2  135   5.441   0.205   1.824 -0.2412 -0.3191  0.3907
    8EMI     N3  136   5.315   0.243   1.840 -0.3304 -0.8294  0.3524
    8EMI     C4  137   5.256   0.172   1.947  0.4414  0.0743  0.4489
    8EMI     C5  138   5.348   0.085   1.981  0.3415 -0.4163  0.5861
    8EMI     H2  139   5.510   0.257   1.760  1.7711  0.6326  0.4786
    8EMI     H4  140   5.152   0.170   1.976  3.2122 -1.8029  3.4483
    8EMI     H5  141   5.331   0.011   2.064 -1.2805 -1.4904  1.1845
    8EMI    C1'  142   5.231   0.339   1.758 -0.0714  0.0942  0.1713
    8EMI    H1'  143   5.130   0.297   1.783  0.6782 -0.2740  1.5298
    8EMI    H1'  144   5.259   0.437   1.800  2.9524  1.2560 -0.3976
    8EMI    H1'  145   5.243   0.333   1.654 -0.3654  0.5028 -1.0233
    8EMI    C1"  146   5.584   0.022   1.936 -0.2297 -0.4229  0.0672
    8EMI    H1"  147   5.565  -0.051   2.020 -1.2000 -2.7570  2.4125
    8EMI    H1"  148   5.667   0.081   1.969  0.2965  0.5396  0.0322
    8EMI    C2"  149   5.614  -0.061   1.815  0.3270 -0.8181  0.4113
    8EMI    H2"  150   5.698  -0.130   1.834 -0.5803  0.9989  0.1663
    8EMI    H2"  151   5.518  -0.105   1.783 -3.3447 -0.0329  2.4227
    8EMI    H2"  152   5.637   0.016   1.739 -0.4031 -1.8994  1.4374
    9EMI     N1  153   5.540   2.357   1.934  0.4540  0.0058  0.5461
    9EMI     C2  154   5.666   2.394   1.907 -0.3609 -0.1534  0.0278
    9EMI     N3  155   5.710   2.477   2.003 -0.2145 -0.1583  0.2356
    9EMI     C4  156   5.610   2.488   2.096  0.4504  0.1861 -0.1237
    9EMI     C5  157   5.507   2.407   2.055 -0.9784 -0.3687 -0.1305
    9EMI     H2  158   5.734   2.365   1.831  1.9202  1.2055  0.9119
    9EMI     H4  159   5.615   2.545   2.185 -0.9989 -2.1629 -2.9061
    9EMI     H5  160   5.409   2.402   2.110  0.8692  0.4409 -2.6635
    9EMI    C1'  161   5.838   2.557   2.004  0.5236  0.0513 -0.2758
    9EMI    H1'  162   5.922   2.495   1.969  0.0319  3.1878  2.1882
    9EMI    H1'  163   5.827   2.634   1.932  1.3464 -1.5407  0.0434
    9EMI    H1'  164   5.857   2.613   2.102 -0.6937  1.2057  0.1197
    9EMI    C1"  165   5.453   2.255   1.868  0.3978 -0.6034  0.0207
    9EMI    H1"  166   5.352   2.272   1.910 -1.2068  0.0549  2.0767
    9EMI    H1"  167   5.493   2.156   1.883  1.0605  3.4146  1.5765
    9EMI    C2"  168   5.424   2.277   1.717  1.3777  0.3133  0.3395
    9EMI    H2"  169   5.401   2.179   1.677 -0.0864 -1.0619  0.0966
    9EMI    H2"  170   5.343   2.346   1.706  0.2339 -0.2916  0.1439
    9EMI    H2"  171   5.507   2.315   1.667  2.0747 -0.1800 -1.2504
   10EMI     N1  172   3.670   2.701   1.016 -0.4053  0.0240  0.4134
   10EMI     C2  173   3.554   2.671   0.958 -0.3344  0.7419  0.1625
   10EMI     N3  174   3.506   2.557   1.007 -0.0954  0.1525  0.5962
   10EMI     C4  175   3.589   2.513   1.114 -0.0614  0.3207  0.4289
   10EMI     C5  176   3.687   2.608   1.123  0.8007 -0.2301  0.1786
   10EMI     H2  177   3.511   2.717   0.875 -1.3234 -0.2672 -0.4214
   10EMI     H4  178   3.585   2.419   1.174  1.6392  1.6977  1.2331
   10EMI     H5  179   3.770   2.603   1.194  1.0424  0.4301 -1.1068
   10EMI    C1'  180   3.376   2.493   0.981  0.0854 -0.6356 -0.2377
   10EMI    H1'  181   3.316   2.571   0.937  2.1249  1.2139  1.1212
   10EMI    H1'  182   3.379   2.421   0.900 -0.4785 -0.6185 -2.9360
   10EMI    H1'  183   3.338   2.460   1.074  1.6800  2.8638 -1.9468
   10EMI    C1"  184   3.773   2.795   0.975  0.4740  0.3930  0.0941
   10EMI    H1"  185   3.769   2.801   0.873 -4.0110 -1.9271 -1.1272
   10EMI    H1"  186   3.875   2.759   1.006  2.2377 -0.1416 -2.8442
   10EMI    C2"  187   3.742   2.930   1.042 -0.2447  0.3593 -0.0176
   10EMI    H2"  188   3.740   2.999   0.962 -1.2402  0.5141 -2.4151
   10EMI    H2"  189   3.648   2.922   1.097 -1.7085 -0.0656 -2.5222
   10EMI    H2"  190   3.829   2.952   1.111  2.4732  0.7725 -0.1305
   11EMI     N1  191   5.834   0.247   1.235 -0.0182 -0.0621 -0.3621
   11EMI     C2  192   5.891   0.204   1.118 -1.0618 -0.0913 -0.1484
   11EMI     N3  193   6.017   0.160   1.141 -0.5701 -0.4191 -0.1604
   11EMI     C4  194   6.037   0.160   1.279 -0.1763 -0.0630  0.0068
   11EMI     C5  195   5.929   0.217   1.331 -0.2339  0.8076 -0.3034
   11EMI     H2  196   5.845   0.220   1.019  0.8379 -2.0199 -1.3345
   11EMI     H4  197   6.124   0.123   1.336  0.0220 -0.4942 -1.5471
   11EMI     H5  198   5.913   0.226   1.436  0.0960 -1.3182 -1.3589
   11EMI    C1'  199   6.119   0.122   1.046  0.1288  0.7365  0.1256
   11EMI    H1'  200   6.133   0.211   0.985  1.4752 -1.8782  2.2618
   11EMI    H1'  201   6.214   0.114   1.094  1.9806 -1.2355 -0.6968
   11EMI    H1'  202   6.095   0.025   1.000 -0.0150  0.9716 -2.9745
   11EMI    C1"  203   5.703   0.315   1.254  0.4843  0.0800  0.2189
   11EMI    H1"  204   5.663   0.265   1.340 -0.3908 -1.0009  0.1189
   11EMI    H1"  205   5.630   0.311   1.169 -0.4265 -1.5930  0.2322
   11EMI    C2"  206   5.704   0.471   1.285  0.0215  0.5840  0.0705
   11EMI    H2"  207   5.606   0.501   1.311  0.8937  0.1872 -0.8294
   11EMI    H2"  208   5.773   0.495   1.371  1.8692 -0.2879 -2.2728
   11EMI    H2"  209   5.737   0.523   1.194 -0.7560 -0.7356  0.0497
   12EMI     N1  210   1.323   2.742   3.319  0.2680 -0.6728 -0.1373
   12EMI     C2  211   1.431   2.748   3.398 -0.0925  0.1380 -0.9381
   12EMI     N3  212   1.535   2.807   3.332  0.5168  0.1282  0.0112
   12EMI     C4  213   1.484   2.860   3.212 -0.9148 -0.0955  0.5016
   12EMI     C5  214   1.354   2.819   3.210  0.6888  0.1525 -0.1640
   12EMI     H2  215   1.440   2.700   3.491 -1.6197  0.4904 -1.7869
   12EMI     H4  216   1.543   2.911   3.138 -2.8027 -0.1058 -2.3783
   12EMI     H5  217   1.288   2.847   3.125 -2.1682  1.8497 -1.3078
   12EMI    C1'  218   1.676   2.822   3.372  0.1833 -0.1766 -0.3560
   12EMI    H1'  219   1.692   2.803   3.481  0.7612  0.8169  0.9914
   12EMI    H1'  220   1.735   2.742   3.329  0.4900 -2.3339  0.5593
   12EMI    H1'  221   1.713   2.920   3.344 -0.2414  1.3525  2.0672
   12EMI    C1"  222   1.210   2.647   3.321  1.1501 -0.3389  0.3241
   12EMI    H1"  223   1.138   2.691   3.252 -0.1330 -0.0832  0.2278
   12EMI    H1"  224   1.160   2.631   3.415  1.8404  3.1129 -0.1274
   12EMI    C2"  225   1.265   2.519   3.262  0.7043  0.4794  0.4121
   12EMI    H2"  226   1.191   2.438   3.259 -1.1971  0.2924  0.4986
   12EMI    H2"  227   1.297   2.537   3.158 -0.5283 -0.8265  0.0488
   12EMI    H2"  228   1.348   2.480   3.323 -1.5119  0.2000 -2.0962
   13EMI     N1  229   3.063   5.429   2.829  0.1651  0.2704 -0.2410
   13EMI     C2  230   2.985   5.357   2.749 -0.2158 -0.4960  0.2361
   13EMI     N3  231   3.066   5.293   2.655 -0.1360 -0.0111 -0.2508
   13EMI     C4  232   3.194   5.320   2.690  0.2864  0.3116 -0.1138
   13EMI     C5  233   3.192   5.414   2.785 -0.2372 -0.5151 -0.5739
   13EMI     H2  234   2.876   5.362   2.751 -1.5083 -0.1420  2.2225
   13EMI     H4  235   3.284   5.284   2.648 -2.8092 -0.6863  1.1185
   13EMI     H5  236   3.282   5.458   2.828  1.7178  0.6058  2.0997
   13EMI    C1'  237   3.029   5.192   2.553 -0.4479  0.2638 -0.6509
   13EMI    H1'  238   2.922   5.169   2.562  3.3704 -0.1325  0.7106
   13EMI    H1'  239   3.038   5.240   2.455  0.2913 -2.6291 -0.4274
   13EMI    H1'  240   3.106   5.113   2.560 -0.1984  1.8999  0.1524
   13EMI    C1"  241   3.023   5.521   2.933 -0.1018 -0.5820  0.6515
   13EMI    H1"  242   2.921   5.549   2.926 -0.8467 -3.4281 -0.9040
   13EMI    H1"  243   3.081   5.615   2.924  5.0063 -2.1911  0.8672
   13EMI    C2"  244   3.048   5.476   3.075  0.4733 -0.0448 -0.2571
   13EMI    H2"  245   2.999   5.388   3.103  0.2224 -0.4435  0.4325
   13EMI    H2"  246   3.154   5.473   3.119  0.2240 -1.8088 -0.1898
   13EMI    H2"  247   3.002   5.554   3.138 -0.2071  3.0081 -1.5737
   14EMI     N1  248   3.198   4.343   5.009  0.7198 -0.0444 -0.2452
   14EMI     C2  249   3.116   4.381   5.108  0.0170 -0.7828 -1.0356
   14EMI     N3  250   3.006   4.449   5.072 -0.1611 -1.0026 -0.2555
   14EMI     C4  251   3.020   4.457   4.937 -0.1360  0.1127  0.1674
   14EMI     C5  252   3.133   4.388   4.895  0.3308 -1.0842 -0.0542
   14EMI     H2  253   3.139   4.370   5.214 -1.7063  0.8005  1.3079
   14EMI     H4  254   2.946   4.505   4.871  0.7982  2.6671 -1.2089
   14EMI     H5  255   3.172   4.382   4.790  1.3943  2.3763  2.8876
   14EMI    C1'  256   2.887   4.494   5.147 -0.2234 -0.4424  0.8725
   14EMI    H1'  257   2.884   4.607   5.146 -1.7267  2.7800  2.7050
   14EMI    H1'  258   2.797   4.443   5.109 -1.3236 -1.0650  0.4807
   14EMI    H1'  259   2.908   4.465   5.246  0.7575  2.9887  0.5172
   14EMI    C1"  260   3.321   4.261   5.007 -0.2399  0.0235 -0.4075
   14EMI    H1"  261   3.398   4.309   5.065  0.1090  2.4456 -1.5315
   14EMI    H1"  262   3.349   4.236   4.904 -1.5539 -2.7512  3.8001
   14EMI    C2"  263   3.298   4.132   5.084 -0.5173 -0.6451  0.0295
   14EMI    H2"  264   3.281   4.144   5.190  0.1371 -2.9948  0.2264
   14EMI    H2"  265   3.211   4.077   5.037 -0.8685  0.3266 -1.4404
   14EMI    H2"  266   3.395   4.083   5.087 -0.1752 -0.5924 -0.0276
   15EMI     N1  267   3.353   2.620   2.309 -0.8662 -0.0492 -0.1151
   15EMI     C2  268   3.422   2.733   2.279 -0.4827  0.1547  0.3230
   15EMI     N3  269   3.491   2.717   2.167 -0.4166  1.2351  0.1342
   15EMI     C4  270   3.469   2.593   2.123 -0.8555  0.7268  0.1133
   15EMI     C5  271   3.381   2.530   2.207  0.0788  0.7547  0.1758
   15EMI     H2  272   3.399   2.829   2.333 -2.0001  0.4158  0.4669
   15EMI     H4  273   3.519   2.554   2.028 -1.0988 -0.5262 -2.9911
   15EMI     H5  274   3.341   2.429   2.196 -1.7250 -1.6840  0.6535
   15EMI    C1'  275   3.574   2.817   2.104 -0.2318  0.3506  0.9048
   15EMI    H1'  276   3.508   2.869   2.036  0.6148  0.8641 -4.2141
   15EMI    H1'  277   3.602   2.882   2.182 -2.1958 -2.3995 -2.8459
   15EMI    H1'  278   3.655   2.780   2.044 -1.5645  1.4527  3.5918
   15EMI    C1"  279   3.235   2.603   2.397  0.5760  0.5207 -0.6842
   15EMI    H1"  280   3.187   2.512   2.363  3.0601  1.0115  0.6288
   15EMI    H1"  281   3.162   2.689   2.377 -0.3970  2.0467 -3.2830
   15EMI    C2"  282   3.283   2.600   2.543  0.5860  0.1921  0.1604
   15EMI    H2"  283   3.360   2.525   2.545  1.7382  1.7106 -0.4252
   15EMI    H2"  284   3.332   2.693   2.567 -1.7322 -1.2824  1.0242
   15EMI    H2"  285   3.197   2.581   2.605  1.9670  0.3840 -2.4752
   16EMI     N1  286   0.676   5.324   4.130  0.6736  0.3894  0.3207
   16EMI     C2  287   0.627   5.350   4.009 -0.4981 -0.1403 -0.1026
   16EMI     N3  288   0.723   5.325   3.920  0.6767  0.0182  0.3294
   16EMI     C4  289   0.840   5.295   3.983 -0.1377 -0.8776  0.7399
   16EMI     C5  290   0.809   5.294   4.116 -0.4417 -0.2450 -0.1177
   16EMI     H2  291   0.520   5.375   3.987 -0.1320 -0.2172  2.2762
   16EMI     H4  292   0.940   5.291   3.933  2.8814  2.2399 -0.0009
   16EMI     H5  293   0.876   5.283   4.197 -0.1009 -1.1985 -1.8418
   16EMI    C1'  294   0.714   5.327   3.773 -0.9802 -0.1200  0.1094
   16EMI    H1'  295   0.817   5.310   3.738 -0.2192 -0.6529  1.0244
   16EMI    H1'  296   0.647   5.249   3.754 -0.1745  2.5032 -1.1664
   16EMI    H1'  297   0.683   5.421   3.735  0.9895 -0.1783  0.8910
   16EMI    C1"  298   0.609   5.333   4.260 -0.2965  0.6910 -0.0882
   16EMI    H1"  299   0.536   5.412   4.252 -0.9316  0.8617 -3.1488
   16EMI    H1"  300   0.670   5.362   4.345  1.8815 -0.3903 -0.0385
   16EMI    C2"  301   0.541   5.199   4.291  0.3452 -0.4011  0.3450
   16EMI    H2"  302   0.489   5.207   4.388 -2.1260 -1.5110  0.0738
   16EMI    H2"  303   0.468   5.174   4.210 -4.1617  0.4502 -0.6694
   16EMI    H2"  304   0.605   5.121   4.317  1.3482 -0.6396  0.1983
   17EMI     N1  305   3.500   3.314   2.439  0.1450  0.5761  0.0384
   17EMI     C2  306   3.553   3.240   2.343  0.0860  0.2419 -0.2423
   17EMI     N3  307   3.467   3.219   2.245  0.0822 -0.5165  0.5093
   17EMI     C4  308   3.346   3.290   2.278 -0.2936  0.1572 -0.4414
   17EMI     C5  309   3.368   3.341   2.400  0.4590 -0.3440 -0.0855
   17EMI     H2  310   3.644   3.187   2.345 -0.4924 -0.6293  1.2573
   17EMI     H4  311   3.263   3.299   2.206  0.1969 -0.0275 -0.3679
   17EMI     H5  312   3.292   3.398   2.448 -0.0370 -2.1266 -0.2206
   17EMI    C1'  313   3.476   3.155   2.111 -0.5747 -0.3344  0.3134
   17EMI    H1'  314   3.581   3.118   2.092 -2.3192 -0.9260 -0.3169
   17EMI    H1'  315   3.423   3.062   2.119 -1.6490  0.1770  0.9580
   17EMI    H1'  316   3.448   3.214   2.022  1.8574 -0.4965  0.8832
   17EMI    C1"  317   3.560   3.363   2.564 -0.1922 -0.2373 -0.1059
   17EMI    H1"  318   3.589   3.471   2.557  2.0951  3.0425 -1.8625
   17EMI    H1"  319   3.650   3.304   2.576  1.5771  0.2955 -1.4627
   17EMI    C2"  320   3.485   3.325   2.687  0.2400  0.5007 -0.3336
   17EMI    H2"  321   3.469   3.214   2.685  0.7801 -0.5516  3.3919
   17EMI    H2"  322   3.553   3.344   2.770  0.0788  1.3782  0.9008
   17EMI    H2"  323   3.394   3.379   2.692  3.2002 -1.3003 -0.9840
   18EMI     N1  324   4.669   3.132   5.238 -1.1425 -0.3208 -0.4537
   18EMI     C2  325   4.687   3.095   5.369 -0.2403 -0.2834 -0.1946
   18EMI     N3  326   4.806   3.027   5.385 -0.1671  0.1651  0.0477
   18EMI     C4  327   4.868   3.031   5.256  0.4696  0.4405 -0.4580
   18EMI     C5  328   4.783   3.086   5.169  1.0250  0.4852 -0.4415
   18EMI     H2  329   4.624   3.133   5.449  1.2510  0.3831  1.1706
   18EMI     H4  330   4.965   2.995   5.230  0.1593  0.0131 -1.0933
   18EMI     H5  331   4.799   3.096   5.053  0.5034  0.1307  0.2710
   18EMI    C1'  332   4.881   2.989   5.509 -0.2019 -0.6548  0.2457
   18EMI    H1'  333   4.954   2.906   5.502  2.4938  0.3585  2.4147
   18EMI    H1'  334   4.939   3.078   5.541 -0.5489 -1.1508 -2.3509
   18EMI    H1'  335   4.802   2.965   5.584 -0.8537  1.3595 -0.6012
   18EMI    C1"  336   4.556   3.204   5.166  0.3082  0.5119  0.5381
   18EMI    H1"  337   4.603   3.280   5.099  0.5111  3.4059  0.2656
   18EMI    H1"  338   4.490   3.254   5.234  1.6425 -0.1758 -0.5974
   18EMI    C2"  339   4.477   3.107   5.074 -0.5086 -0.5735 -0.4861
   18EMI    H2"  340   4.543   3.051   5.002 -0.3304 -0.6406 -0.0728
   18EMI    H2"  341   4.438   3.038   5.140 -1.1692 -1.9345 -0.9874
   18EMI    H2"  342   4.397   3.164   5.024 -0.9512  0.2861  0.6209
   19EMI     N1  343   4.987   6.222   1.845  0.3701 -0.2431 -0.0741
   19EMI     C2  344   4.984   6.181   1.972 -0.5097 -0.3275  0.0506
   19EMI     N3  345   5.101   6.135   2.015 -0.5528 -0.0429  0.8520
   19EMI     C4  346   5.189   6.151   1.914 -0.3955 -0.6556  0.8320
   19EMI     C5  347   5.121   6.207   1.811 -0.4987  0.0511 -0.4369
   19EMI     H2  348   4.899   6.188   2.039 -0.5648 -1.4772 -0.8272
   19EMI     H4  349   5.288   6.122   1.916  1.5323 -0.9680 -0.8503
   19EMI     H5  350   5.162   6.234   1.718 -2.5517 -0.5954  0.9575
   19EMI    C1'  351   5.127   6.043   2.130 -0.2338  0.2254  0.0671
   19EMI    H1'  352   5.034   5.995   2.155  0.5274 -0.3158 -1.5411
   19EMI    H1'  353   5.204   5.975   2.097  2.1776 -1.4805 -0.4440
   19EMI    H1'  354   5.170   6.099   2.209  0.1974  0.1162  0.0871
   19EMI    C1"  355   4.880   6.273   1.759  0.5040 -0.3448  0.1133
   19EMI    H1"  356   4.801   6.314   1.817 -2.4508  0.0427 -0.4085
   19EMI    H1"  357   4.833   6.189   1.698 -0.2781  1.9028 -1.8376
   19EMI    C2"  358   4.923   6.383   1.653  0.2106 -0.8704  0.2705
   19EMI    H2"  359   4.842   6.452   1.623  0.3565  0.7615  0.8199
   19EMI    H2"  360   4.993   6.446   1.703 -0.2399 -0.3792 -0.1671
   19EMI    H2"  361   4.979   6.347   1.563  1.4243  0.2659 -2.7402
   20EMI     N1  362   1.114   4.204   1.227  0.6170 -0.0731 -0.0096
   20EMI     C2  363   1.121   4.306   1.145  0.8912 -0.5226  0.5011
   20EMI     N3  364   1.240   4.313   1.082  0.5957  0.2075  0.2556
   20EMI     C4  365   1.313   4.205   1.132 -0.2521 -0.1791  0.3613
   20EMI     C5  366   1.235   4.136   1.217 -0.2059  0.3055  0.2435
   20EMI     H2  367   1.047   4.375   1.120 -0.3800 -0.4730  1.2628
   20EMI     H4  368   1.418   4.177   1.103  1.9002 -0.3722  0.0565
   20EMI     H5  369   1.264   4.048   1.273 -0.8135 -0.5927  0.9998
   20EMI    C1'  370   1.306   4.421   1.000  0.4735  0.2216 -0.2194
   20EMI    H1'  371   1.376   4.366   0.938 -0.3311  0.4940  0.3292
   20EMI    H1'  372   1.234   4.467   0.932  3.2816  2.3746 -0.5421
   20EMI    H1'  373   1.366   4.489   1.060 -0.4691  1.2600 -2.0704
   20EMI    C1"  374   0.993   4.165   1.301  0.3493  0.3421 -0.5828
   20EMI    H1"  375   0.950   4.072   1.252  4.2449  1.9314  0.5852
   20EMI    H1"  376   0.918   4.244   1.293  2.9253  1.1091 -0.6456
   20EMI    C2"  377   1.024   4.147   1.449 -0.1205 -0.0449  0.3038
   20EMI    H2"  378   1.032   4.240   1.497 -2.0165 -0.5416  0.2991
   20EMI    H2"  379   0.932   4.105   1.503  0.8493 -0.8372  1.4460
   20EMI    H2"  380   1.115   4.091   1.462 -0.3045  0.5952 -1.3914
   21EMI     N1  381   2.876   6.261   0.777 -0.3567  0.0250  1.4501
   21EMI     C2  382   2.779   6.165   0.785  0.2033  0.2877 -0.3118
   21EMI     N3  383   2.661   6.226   0.814 -0.2783 -0.7468 -1.0408
   21EMI     C4  384   2.688   6.361   0.830 -0.4555  0.2401 -0.4332
   21EMI     C5  385   2.818   6.380   0.804  0.0399 -0.5405 -0.7559
   21EMI     H2  386   2.798   6.059   0.787  0.8011 -1.6433 -0.4891
   21EMI     H4  387   2.621   6.439   0.863 -0.1528  2.9248  3.5809
   21EMI     H5  388   2.858   6.477   0.797 -1.1874 -1.3925 -2.1717
   21EMI    C1'  389   2.531   6.172   0.845  0.0064  0.2470  0.5078
   21EMI    H1'  390   2.459   6.246   0.882  0.5759  2.8012 -0.4135
   21EMI    H1'  391   2.491   6.126   0.755 -0.8665 -1.9100 -2.1090
   21EMI    H1'  392   2.532   6.094   0.922 -0.6020  3.3981  3.3158
   21EMI    C1"  393   3.027   6.240   0.761 -0.5285  0.0298 -0.5275
   21EMI    H1"  394   3.067   6.317   0.692  0.8274 -1.4352 -0.7702
   21EMI    H1"  395   3.044   6.138   0.725  2.4910  1.1301 -0.6563
   21EMI    C2"  396   3.099   6.248   0.893 -0.1512  0.0049 -0.9750
   21EMI    H2"  397   3.099   6.352   0.925 -1.5498 -0.9848 -1.0649
   21EMI    H2"  398   3.059   6.191   0.980 -0.6602  1.1511  1.3695
   21EMI    H2"  399   3.206   6.222   0.879  0.4877  1.6551 -2.8100
   22EMI     N1  400   1.004   4.004   2.637  0.0517  0.3816  0.2541
   22EMI     C2  401   1.091   3.958   2.555 -0.6466 -0.3466  0.6063
   22EMI     N3  402   1.116   4.048   2.459  0.2999 -0.0404 -0.1548
   22EMI     C4  403   1.033   4.150   2.478  0.0612  0.0440  0.7552
   22EMI     C5  404   0.965   4.129   2.590  0.7101  0.9318 -0.0157
   22EMI     H2  405   1.151   3.865   2.562  2.8437 -0.4006 -0.2828
   22EMI     H4  406   1.026   4.234   2.410  2.4854  2.3853  0.0222
   22EMI     H5  407   0.894   4.190   2.637  0.9957  0.2623  1.7148
   22EMI    C1'  408   1.195   4.030   2.342 -0.3971  0.8278 -0.3671
   22EMI    H1'  409   1.134   4.040   2.256 -1.8613  0.2191  0.8670
   22EMI    H1'  410   1.266   4.111   2.350 -2.7115 -0.2950  1.9721
   22EMI    H1'  411   1.245   3.927   2.345  1.4119 -0.2741  0.0919
   22EMI    C1"  412   0.934   3.938   2.752 -0.3374  0.2423 -0.9540
   22EMI    H1"  413   0.830   3.910   2.718 -0.0276 -0.8819  1.1320
   22EMI    H1"  414   0.946   4.012   2.834 -0.0013  2.4507 -0.8570
   22EMI    C2"  415   0.992   3.814   2.812  0.8693 -0.0221 -0.1514
   22EMI    H2"  416   0.923   3.780   2.892 -0.5482  1.5092 -0.3696
   22EMI    H2"  417   0.987   3.741   2.719 -1.2824 -1.2892 -3.0278
   22EMI    H2"  418   1.083   3.844   2.859 -3.4220 -1.6115 -2.1863
   23EMI     N1  419   0.889   5.853   2.441  0.5048  0.3390 -0.0880
   23EMI     C2  420   0.923   5.885   2.567 -0.7582  0.4900 -0.6359
   23EMI     N3  421   0.940   6.016   2.574 -0.1492  0.4720 -0.6884
   23EMI     C4  422   0.922   6.069   2.450 -0.0430 -0.3239 -0.2713
   23EMI     C5  423   0.891   5.969   2.369  0.2399 -0.2424  0.3314
   23EMI     H2  424   0.936   5.806   2.639 -0.0597 -3.6202 -1.4406
   23EMI     H4  425   0.932   6.175   2.423  1.3086  2.8261  2.7705
   23EMI     H5  426   0.882   5.968   2.263  1.9343 -0.9729  3.1080
   23EMI    C1'  427   0.981   6.103   2.687  0.0359 -0.1673  0.2763
   23EMI    H1'  428   0.904   6.177   2.703  0.3840  1.4413 -0.4704
   23EMI    H1'  429   0.998   6.048   2.780 -2.5122  1.2225  0.8045
   23EMI    H1'  430   1.075   6.150   2.650  1.9186 -1.8523  0.0947
   23EMI    C1"  431   0.850   5.724   2.380 -0.2657  0.6466  0.3048
   23EMI    H1"  432   0.925   5.656   2.413  2.0369  0.7508 -2.8000
   23EMI    H1"  433   0.844   5.731   2.274  1.3337 -0.8780  0.9182
   23EMI    C2"  434   0.717   5.673   2.452 -0.6029 -0.3259 -0.5240
   23EMI    H2"  435   0.732   5.689   2.564 -1.7628  3.1986  1.0811
   23EMI    H2"  436   0.642   5.739   2.415  1.6191  0.2087  1.4950
   23EMI    H2"  437   0.692   5.566   2.432 -2.0066 -1.1152 -0.0979
   24EMI     N1  438   4.681   6.026   4.885  0.2237  0.0285  0.3101
   24EMI     C2  439   4.552   6.044   4.929 -0.0175 -0.0221  0.2074
   24EMI     N3  440   4.515   5.939   5.007 -0.0689  0.5081  0.5551
   24EMI     C4  441   4.626   5.857   5.025  0.4201  0.0706  0.9874
   24EMI     C5  442   4.727   5.910   4.948 -0.2228 -0.3386  0.0189
   24EMI     H2  443   4.480   6.113   4.899  0.7810 -0.6664 -4.5010
   24EMI     H4  444   4.638   5.774   5.088  1.2782 -2.6994 -2.2334
   24EMI     H5  445   4.824   5.862   4.929 -1.0578 -1.1924  2.6451
   24EMI    C1'  446   4.384   5.893   5.048 -0.1837  0.4786  1.1369
   24EMI    H1'  447   4.331   5.861   4.950 -1.2087  0.4015 -1.6210
   24EMI    H1'  448   4.394   5.806   5.112 -2.7476 -1.9292 -0.0791
   24EMI    H1'  449   4.332   5.975   5.101 -0.1208  1.4203 -0.4935
   24EMI    C1"  450   4.760   6.111   4.792  0.3630 -0.3710 -0.1123
   24EMI    H1"  451   4.700   6.199   4.789 -0.9420 -3.1480  1.3928
   24EMI    H1"  452   4.770   6.049   4.702  0.5828 -1.3144  2.3382
   24EMI    C2"  453   4.887   6.143   4.864  0.3803  0.5376  0.3061
   24EMI    H2"  454   4.866   6.199   4.959 -0.5631  0.8438  3.3256
   24EMI    H2"  455   4.943   6.049   4.888  0.0310  0.5663 -1.3197
   24EMI    H2"  456   4.950   6.214   4.806  0.1657 -0.1319 -0.5631
   25EMI     N1  457   1.769   5.379   5.954 -0.4413 -0.0904 -0.2601
   25EMI     C2  458   1.639   5.378   5.931 -0.1065 -0.0424 -0.2562
   25EMI     N3  459   1.597   5.251   5.903 -0.5558  0.2240 -0.2308
   25EMI     C4  460   1.708   5.168   5.917  0.6921  0.5352  0.1894
   25EMI     C5  461   1.812   5.250   5.958 -0.4606  0.7087  0.6966
   25EMI     H2  462   1.580   5.465   5.926  0.3356 -3.9807 -0.5092
   25EMI     H4  463   1.708   5.060   5.903 -0.1675  1.5780 -1.2534
   25EMI     H5  464   1.912   5.214   5.980  1.9621  0.5210  0.8448
   25EMI    C1'  465   1.471   5.193   5.858 -0.0279 -0.6854 -0.4427
   25EMI    H1'  466   1.389   5.208   5.936 -3.1326  1.8655  0.0443
   25EMI    H1'  467   1.439   5.235   5.761  0.7312  0.4507 -2.7497
   25EMI    H1'  468   1.489   5.082   5.855  1.3384  2.3048  1.7069
   25EMI    C1"  469   1.857   5.491   5.989 -0.0812 -1.0141 -0.6148
   25EMI    H1"  470   1.851   5.567   5.910 -1.3379 -2.8138  1.8306
   25EMI    H1"  471   1.963   5.456   5.997 -0.1857 -0.5577  3.4391
   25EMI    C2"  472   1.807   5.575   6.107  0.2569 -0.8166  0.2547
   25EMI    H2"  473   1.707   5.609   6.074 -0.2407 -0.6272 -2.4375
   25EMI    H2"  474   1.801   5.521   6.202  1.2236 -0.1752  2.5312
   25EMI    H2"  475   1.870   5.665   6.117  1.0662 -2.2627 -0.1243
   26EMI     N1  476   2.448   1.633   1.889  0.3821 -0.1740  0.1816
   26EMI     C2  477   2.428   1.502   1.862 -0.3234 -0.6900  0.7646
   26EMI     N3  478   2.406   1.487   1.732  0.2093  0.1002  1.5802
   26EMI     C4  479   2.425   1.611   1.677  0.1926  0.1696  0.7583
   26EMI     C5  480   2.449   1.708   1.770  0.2592 -0.0406  0.0499
   26EMI     H2  481   2.440   1.427   1.935 -0.7748  1.4714  2.2567
   26EMI     H4  482   2.402   1.633   1.571  0.7009  1.4123 -0.4610
   26EMI     H5  483   2.466   1.814   1.761  0.7484 -1.2534  1.0462
   26EMI    C1'  484   2.353   1.364   1.666  0.7151 -0.4554 -0.3691
   26EMI    H1'  485   2.310   1.385   1.575  3.7354  1.2334  0.2085
   26EMI    H1'  486   2.431   1.288   1.650  1.3512 -0.9380 -0.6558
   26EMI    H1'  487   2.296   1.310   1.737  1.4300 -0.6799  0.0426
   26EMI    C1"  488   2.485   1.694   2.022 -0.0938 -0.3559  0.5630
   26EMI    H1"  489   2.411   1.680   2.101 -1.2587  1.5262 -0.9342
   26EMI    H1"  490   2.491   1.795   2.006 -1.8875 -3.0391 -1.1476
   26EMI    C2"  491   2.630   1.647   2.059  0.5557 -0.2605  0.0019
   26EMI    H2"  492   2.663   1.709   2.134  1.0173 -0.9595  1.0443
   26EMI    H2"  493   2.633   1.547   2.104 -0.8186  0.6900  0.0556
   26EMI    H2"  494   2.694   1.657   1.973 -0.7358 -1.9802 -2.5717
   27EMI     N1  495   3.636   6.239   0.618 -0.8714 -0.4514 -0.3572
   27EMI     C2  496   3.739   6.161   0.572 -0.2219 -0.5161 -0.0455
   27EMI     N3  497   3.710   6.030   0.601 -0.3489 -0.4733 -0.0756
   27EMI     C4  498   3.581   6.034   0.652  0.0962 -0.1474  0.6640
   27EMI     C5  499   3.533   6.160   0.668 -0.7419  0.2323 -0.0294
   27EMI     H2  500   3.843   6.193   0.548  1.6242  0.9162 -0.7046
   27EMI     H4  501   3.530   5.934   0.660 -0.6955 -2.5162 -0.2051
   27EMI     H5  502   3.440   6.192   0.707 -1.8944  2.2135  0.5487
   27EMI    C1'  503   3.792   5.912   0.598 -0.4791  0.2882  0.0550
   27EMI    H1'  504   3.736   5.824   0.556 -0.9071 -1.0340  1.6787
   27EMI    H1'  505   3.886   5.924   0.550 -2.8306 -0.6524  2.8232
   27EMI    H1'  506   3.818   5.878   0.703 -3.2230 -0.8145 -0.8441
   27EMI    C1"  507   3.620   6.382   0.614 -0.5694 -0.1659  1.1215
   27EMI    H1"  508   3.527   6.411   0.669  0.2307  0.8788  0.8105
   27EMI    H1"  509   3.600   6.417   0.504 -0.3016 -2.4002 -2.9100
   27EMI    C2"  510   3.736   6.453   0.676  0.0850 -0.6737  0.3564
   27EMI    H2"  511   3.836   6.418   0.645 -0.5489  1.7790  3.1904
   27EMI    H2"  512   3.726   6.559   0.661 -0.2906 -1.4594  0.4579
   27EMI    H2"  513   3.729   6.430   0.784  2.2718  0.5279  1.8159
   28EMI     N1  514   1.545   0.731   1.131  0.0179 -0.0370 -0.0704
   28EMI     C2  515   1.456   0.834   1.148  0.0053  0.2671 -0.8165
   28EMI     N3  516   1.510   0.954   1.148  0.0174  0.0798  0.2034
   28EMI     C4  517   1.635   0.929   1.091  0.2931 -0.4036 -0.2704
   28EMI     C5  518   1.663   0.796   1.095 -0.2045  0.0623  0.4066
   28EMI     H2  519   1.350   0.818   1.181  0.6071 -1.7085  2.1307
   28EMI     H4  520   1.707   1.011   1.060  0.4913  1.9798 -0.2403
   28EMI     H5  521   1.752   0.745   1.059  0.3613 -1.9379 -0.9009
   28EMI    C1'  522   1.449   1.091   1.147  0.4247 -0.3998 -0.7389
   28EMI    H1'  523   1.425   1.130   1.046  0.8724  3.1189  3.3755
   28EMI    H1'  524   1.354   1.087   1.204 -0.8071 -2.8418  0.9076
   28EMI    H1'  525   1.519   1.158   1.194  0.0407  1.0295 -2.3222
   28EMI    C1"  526   1.537   0.585   1.133  0.8783 -0.5271  0.2787
   28EMI    H1"  527   1.454   0.549   1.196  0.8084  2.8008  3.0025
   28EMI    H1"  528   1.621   0.537   1.179 -2.5245  0.5320  1.0725
   28EMI    C2"  529   1.527   0.532   0.986 -0.7222  0.6535  0.6643
   28EMI    H2"  530   1.621   0.504   0.943  1.2652 -1.5370  2.3555
   28EMI    H2"  531   1.465   0.441   0.968  0.5677 -0.6051 -1.7415
   28EMI    H2"  532   1.488   0.611   0.925 -1.8907  1.4355  1.3476
   29EMI     N1  533   0.552   5.176   4.727 -0.5186  0.4910 -0.1431
   29EMI     C2  534   0.651   5.218   4.650 -0.2589 -0.3599 -0.2416
   29EMI     N3  535   0.771   5.169   4.688 -0.5670 -0.3191 -0.2234
   29EMI     C4  536   0.743   5.086   4.795 -0.7493 -0.5306 -0.5615
   29EMI     C5  537   0.611   5.097   4.821 -0.3985 -0.0897 -0.2414
   29EMI     H2  538   0.641   5.277   4.555 -1.6241  1.6679 -0.5678
   29EMI     H4  539   0.820   5.023   4.845 -1.7036 -1.3455 -1.7167
   29EMI     H5  540   0.552   5.043   4.899  1.3088  0.6201 -2.3394
   29EMI    C1'  541   0.903   5.160   4.632  0.1720  0.4272  0.5918
   29EMI    H1'  542   0.955   5.076   4.671  1.4337  3.2780 -1.9067
   29EMI    H1'  543   0.885   5.153   4.522 -2.1204  2.5655 -1.8205
   29EMI    H1'  544   0.970   5.243   4.651  1.2985 -0.4778  0.3003
   29EMI    C1"  545   0.404   5.177   4.712  0.6668 -0.8516 -0.3063
   29EMI    H1"  546   0.383   5.261   4.652  1.1516  0.9481  1.3896
   29EMI    H1"  547   0.364   5.179   4.812  0.4119 -0.5791 -0.0536
   29EMI    C2"  548   0.347   5.050   4.641 -0.7863  0.2996 -0.9696
   29EMI    H2"  549   0.243   5.076   4.653  0.1310  2.2711  2.9675
   29EMI    H2"  550   0.384   5.039   4.541  1.0905 -0.7606 -0.1411
   29EMI    H2"  551   0.379   4.954   4.695 -0.5178  1.6233 -1.0730
   30EMI     N1  552   5.606   0.158   5.989  0.2813 -0.3120 -0.0408
   30EMI     C2  553   5.683   0.236   5.906 -0.5122  0.0048  0.1326
   30EMI     N3  554   5.734   0.161   5.804  0.4919  0.0167 -0.1415
   30EMI     C4  555   5.704   0.031   5.828  0.7470  0.1359  0.7883
   30EMI     C5  556   5.629   0.024   5.937  0.4719 -0.5078 -0.2411
   30EMI     H2  557   5.687   0.341   5.926  1.2144  0.3879 -0.6128
   30EMI     H4  558   5.730  -0.053   5.760  0.6798  1.8790 -0.7760
   30EMI     H5  559   5.582  -0.068   5.971  0.0610  1.8508 -1.3132
   30EMI    C1'  560   5.806   0.207   5.683  0.1370  0.2892  0.4311
   30EMI    H1'  561   5.741   0.248   5.609  3.7154  4.0437 -0.3849
   30EMI    H1'  562   5.876   0.288   5.707  0.3169  0.5185  0.4853
   30EMI    H1'  563   5.853   0.120   5.649  1.1699 -0.1414 -1.4317
   30EMI    C1"  564   5.516   0.188   6.102 -0.3894  0.1936 -0.2338
   30EMI    H1"  565   5.426   0.127   6.102 -2.3250  2.9693 -0.4468
   30EMI    H1"  566   5.486   0.295   6.084  2.8701 -0.1944 -1.2155
   30EMI    C2"  567   5.593   0.182   6.240  0.0555 -0.1078  0.3810
   30EMI    H2"  568   5.676   0.120   6.232 -1.2785  1.9726  0.0848
   30EMI    H2"  569   5.634   0.283   6.266 -1.5037  1.0502 -1.3253
   30EMI    H2"  570   5.520   0.152   6.315 -0.1939  0.0327  0.4736
   31EMI     N1  571   4.370   2.684   5.638  0.0601  0.0766  0.4918
   31EMI     C2  572   4.376   2.813   5.590  0.0216  0.0825 -0.4021
   31EMI     N3  573   4.401   2.902   5.687  0.2005 -0.4839  0.0631
   31EMI     C4  574   4.407   2.824   5.803  0.7972 -0.4216 -0.0100
   31EMI     C5  575   4.378   2.697   5.773 -0.3783 -0.0596 -0.1390
   31EMI     H2  576   4.360   2.844   5.491  0.7788 -0.0045  1.0770
   31EMI     H4  577   4.417   2.873   5.897  2.8789 -1.3118 -2.6917
   31EMI     H5  578   4.356   2.610   5.836 -1.1932  0.0390  0.2369
   31EMI    C1'  579   4.408   3.052   5.691  0.2292  0.7495 -0.0290
   31EMI    H1'  580   4.508   3.078   5.657 -2.3529  1.3180 -2.4219
   31EMI    H1'  581   4.330   3.095   5.622 -2.2016 -0.0396 -3.2772
   31EMI    H1'  582   4.395   3.087   5.788 -2.6932  2.7797 -3.5193
   31EMI    C1"  583   4.371   2.557   5.570  0.4249 -0.0663  1.0458
   31EMI    H1"  584   4.426   2.484   5.618 -0.7048 -0.0540  0.9341
   31EMI    H1"  585   4.427   2.577   5.483 -1.8960  0.2793  1.7865
   31EMI    C2"  586   4.229   2.502   5.543  0.3318  0.1462 -0.5782
   31EMI    H2"  587   4.174   2.491   5.639  1.9090 -0.0214  1.7118
   31EMI    H2"  588   4.187   2.584   5.484 -0.2920  0.9756  0.0274
   31EMI    H2"  589   4.237   2.415   5.477  1.8587  1.2600  1.9402
   32EMI     N1  590   2.933   2.902   2.623 -0.0466  0.4364  0.6952
   32EMI     C2  591   2.933   2.881   2.489 -1.0924 -0.7047 -0.5002
   32EMI     N3  592   2.862   2.772   2.458  0.3192 -0.0454 -0.0027
   32EMI     C4  593   2.814   2.723   2.574  0.3685 -0.0846  0.0984
   32EMI     C5  594   2.853   2.801   2.672 -0.2674  0.3433  0.0617
   32EMI     H2  595   2.972   2.945   2.414 -0.1969  3.2562 -2.0251
   32EMI     H4  596   2.756   2.638   2.582  1.0354  1.5344  2.4843
   32EMI     H5  597   2.820   2.783   2.778 -4.1695 -0.4459 -0.3785
   32EMI    C1'  598   2.827   2.719   2.325 -0.1514 -0.3906  0.5499
   32EMI    H1'  599   2.760   2.640   2.340  0.6362 -1.1225 -1.9279
   32EMI    H1'  600   2.783   2.801   2.271  1.3156 -1.4645  0.9287
   32EMI    H1'  601   2.909   2.675   2.272 -0.7435 -2.6593 -0.4104
   32EMI    C1"  602   2.985   3.017   2.703  0.2603 -0.0597 -0.1053
   32EMI    H1"  603   2.968   2.984   2.801 -0.5532 -1.1786  1.6986
   32EMI    H1"  604   2.926   3.102   2.673  2.7950  0.5470  0.7632
   32EMI    C2"  605   3.141   3.044   2.673  0.0788 -0.7217 -0.5783
   32EMI    H2"  606   3.137   3.080   2.576  0.1627  0.8275 -0.2581
   32EMI    H2"  607   3.185   3.118   2.741  0.0796  0.3376 -1.4363
   32EMI    H2"  608   3.200   2.947   2.674  1.6286 -0.7333 -0.8520
   33EMI     N1  609   2.088   1.783   1.049 -0.1063 -0.4132  0.2892
   33EMI     C2  610   2.047   1.914   1.044 -0.4003  0.0084  0.5224
   33EMI     N3  611   1.922   1.919   1.099 -0.1377  0.2341 -0.1072
   33EMI     C4  612   1.887   1.796   1.139  0.3871  0.1053  0.0528
   33EMI     C5  613   1.985   1.713   1.105  0.3914  0.1521 -0.0986
   33EMI     H2  614   2.106   1.997   1.017 -0.6683 -0.7146 -1.7680
   33EMI     H4  615   1.790   1.778   1.187 -2.5663 -1.0461 -1.9110
   33EMI     H5  616   1.976   1.607   1.109 -3.6464 -0.0453  5.0072
   33EMI    C1'  617   1.833   2.035   1.126  0.4554  0.0629  0.2793
   33EMI    H1'  618   1.735   2.000   1.159 -0.0902 -0.7215 -0.8698
   33EMI    H1'  619   1.875   2.108   1.199  1.4112  2.7140 -0.6473
   33EMI    H1'  620   1.806   2.084   1.036  2.6375 -0.6197 -0.4073
   33EMI    C1"  621   2.213   1.724   0.996  0.0557 -0.0585 -0.8042
   33EMI    H1"  622   2.244   1.643   1.063  0.7312 -1.6837  0.5434
   33EMI    H1"  623   2.292   1.797   0.979  0.1771 -0.4998 -0.5007
   33EMI    C2"  624   2.178   1.665   0.859  0.1933 -0.0804  0.3871
   33EMI    H2"  625   2.271   1.646   0.800 -0.1670 -0.8251  0.9913
   33EMI    H2"  626   2.134   1.566   0.878  1.5113 -1.8057  0.7594
   33EMI    H2"  627   2.116   1.725   0.794  2.3667 -0.1086 -0.7371
   34EMI     N1  628   2.416   4.868   1.577  0.7164 -1.0194  0.2300
   34EMI     C2  629   2.436   4.740   1.550 -0.1587  0.5187 -0.4104
   34EMI     N3  630   2.555   4.727   1.492 -0.3068  0.4957  0.4733
   34EMI     C4  631   2.614   4.853   1.486  0.4201  0.6633 -0.1539
   34EMI     C5  632   2.527   4.941   1.532  0.2175  0.0643 -0.8895
   34EMI     H2  633   2.358   4.666   1.559  0.8641  0.0296  0.1200
   34EMI     H4  634   2.718   4.864   1.455  0.4074 -1.4503 -0.2941
   34EMI     H5  635   2.545   5.046   1.541 -0.0963  0.9969  0.7182
   34EMI    C1'  636   2.619   4.605   1.439  0.3001  0.1039  0.0175
   34EMI    H1'  637   2.553   4.558   1.375  1.4643 -0.9503 -0.8361
   34EMI    H1'  638   2.716   4.626   1.401  0.1444  1.8550 -0.9335
   34EMI    H1'  639   2.629   4.527   1.515  0.3861 -1.5753 -1.4229
   34EMI    C1"  640   2.301   4.940   1.636 -0.8710  0.1812 -0.0689
   34EMI    H1"  641   2.228   4.945   1.548 -0.3670 -1.2078  0.4972
   34EMI    H1"  642   2.331   5.045   1.661  1.1057  2.7467 -0.0322
   34EMI    C2"  643   2.256   4.870   1.765 -0.2941 -0.0185  0.2496
   34EMI    H2"  644   2.242   4.940   1.857 -1.3252 -1.2131 -0.9819
   34EMI    H2"  645   2.168   4.817   1.741  3.4801  0.5662  2.7985
   34EMI    H2"  646   2.339   4.792   1.791  3.3516  1.0663 -0.8386
   35EMI     N1  647   2.156   4.621   0.797 -0.1549  0.6799  0.4922
   35EMI     C2  648   2.153   4.675   0.918 -0.4433  0.1050 -0.2697
   35EMI     N3  649   2.157   4.808   0.910 -0.2649  0.2015  0.0935
   35EMI     C4  650   2.147   4.842   0.777 -0.2560  0.2679  0.6702
   35EMI     C5  651   2.155   4.726   0.708 -0.1317 -0.4075 -0.1344
   35EMI     H2  652   2.137   4.629   1.010 -1.9802 -1.6734  1.6737
   35EMI     H4  653   2.124   4.940   0.731 -0.4393  0.4864  0.5113
   35EMI     H5  654   2.148   4.707   0.604 -1.6948  0.2514  1.4094
   35EMI    C1'  655   2.179   4.904   1.020  0.0849 -0.3664  0.5585
   35EMI    H1'  656   2.260   4.974   0.987 -1.7774  1.5810  0.8713
   35EMI    H1'  657   2.092   4.960   1.046  0.9373 -1.7634 -1.2566
   35EMI    H1'  658   2.217   4.859   1.111  1.1507  0.6057  0.0839
   35EMI    C1"  659   2.138   4.482   0.751  0.0455 -1.0074 -0.3907
   35EMI    H1"  660   2.039   4.483   0.706  1.6186 -1.9456  1.4781
   35EMI    H1"  661   2.146   4.416   0.843 -0.1499  0.3635  2.6371
   35EMI    C2"  662   2.254   4.441   0.655 -0.4349 -0.2882 -0.1362
   35EMI    H2"  663   2.255   4.519   0.582  0.2009 -0.6118 -0.5838
   35EMI    H2"  664   2.351   4.442   0.702 -0.8044 -2.5869 -2.2666
   35EMI    H2"  665   2.240   4.350   0.599  0.6811 -2.9730  1.1891
   36EMI     N1  666   5.050   4.995   1.090 -0.3061  0.2675  0.6604
   36EMI     C2  667   5.018   5.081   1.191  0.0410 -0.8741  0.7928
   36EMI     N3  668   4.925   5.169   1.147  0.4525 -0.9742 -0.1085
   36EMI     C4  669   4.901   5.142   1.014  0.3981  0.1349  0.1406
   36EMI     C5  670   4.984   5.041   0.978  0.0992 -0.2060 -0.2013
   36EMI     H2  671   5.057   5.069   1.287 -0.1146  1.6836  1.6140
   36EMI     H4  672   4.845   5.195   0.941 -0.2853 -1.1286 -1.8808
   36EMI     H5  673   5.003   4.989   0.880 -0.0820 -2.1621 -1.9045
   36EMI    C1'  674   4.868   5.288   1.219  0.2170 -0.2328  0.3215
   36EMI    H1'  675   4.873   5.279   1.326 -1.1069 -0.8848 -0.0716
   36EMI    H1'  676   4.915   5.372   1.181 -1.8377 -0.1626  2.6464
   36EMI    H1'  677   4.769   5.297   1.186 -1.7690 -0.0707 -0.8909
   36EMI    C1"  678   5.147   4.880   1.082  0.0897  0.1889 -0.3079
   36EMI    H1"  679   5.179   4.851   1.183 -2.2186 -0.2482  0.4651
   36EMI    H1"  680   5.232   4.911   1.024 -0.4126  3.6342  2.4967
   36EMI    C2"  681   5.072   4.759   1.029 -0.1891  0.0510  0.4284
   36EMI    H2"  682   4.978   4.743   1.077 -0.5303  0.1978 -1.0077
   36EMI    H2"  683   5.054   4.767   0.922 -1.3573  2.0661 -0.6615
   36EMI    H2"  684   5.134   4.676   1.056 -0.3335 -2.1855 -1.8591
   37EMI     N1  685   3.233   5.528   5.026 -0.3807 -0.0838 -0.3658
   37EMI     C2  686   3.343   5.574   5.091  0.4562 -0.2979  0.1826
   37EMI     N3  687   3.432   5.476   5.103 -0.2999  0.8260  0.1094
   37EMI     C4  688   3.380   5.367   5.041  0.3029 -0.1658  0.2322
   37EMI     C5  689   3.261   5.401   4.981 -0.5122  0.3998  0.7221
   37EMI     H2  690   3.355   5.667   5.149 -0.9978 -2.2053  0.8274
   37EMI     H4  691   3.429   5.278   5.025  0.7416  1.4505 -2.3635
   37EMI     H5  692   3.194   5.341   4.922  0.7935  1.7437  3.0567
   37EMI    C1'  693   3.562   5.465   5.169  0.9248  0.7376 -0.1759
   37EMI    H1'  694   3.620   5.558   5.147  0.3728  0.6505 -0.2253
   37EMI    H1'  695   3.531   5.459   5.278 -0.0510  1.6829 -1.5152
   37EMI    H1'  696   3.618   5.382   5.128  2.1000 -0.5059 -1.7216
   37EMI    C1"  697   3.101   5.594   5.007 -0.1420  0.4056 -0.4068
   37EMI    H1"  698   3.035   5.530   4.952  2.0169  0.2885  0.0670
   37EMI    H1"  699   3.114   5.681   4.938 -1.3989  0.3665 -1.7222
   37EMI    C2"  700   3.035   5.618   5.147  0.2259 -0.5516 -0.0381
   37EMI    H2"  701   3.089   5.707   5.183  1.8431 -1.4298  1.2840
   37EMI    H2"  702   2.933   5.644   5.135 -1.3321  0.4792 -1.6005
   37EMI    H2"  703   3.047   5.534   5.215  1.3431  0.9070 -0.6536
   38EMI     N1  704   2.233   3.806   2.868  0.3072 -0.5728 -0.0635
   38EMI     C2  705   2.279   3.804   2.744 -0.1523  0.5711 -0.4425
   38EMI     N3  706   2.411   3.823   2.738 -0.2522  0.1112 -0.5114
   38EMI     C4  707   2.455   3.831   2.868  0.6212 -0.2432  0.6708
   38EMI     C5  708   2.348   3.821   2.944  0.5468 -0.6419  0.2089
   38EMI     H2  709   2.228   3.798   2.650 -1.2323 -0.2596 -1.6830
   38EMI     H4  710   2.556   3.835   2.905 -2.7378 -0.5366 -1.1335
   38EMI     H5  711   2.353   3.820   3.050 -0.1483 -0.3431 -0.5170
   38EMI    C1'  712   2.505   3.842   2.628  0.1294 -0.6381  0.9700
   38EMI    H1'  713   2.465   3.817   2.524 -0.4950 -1.5121 -3.1984
   38EMI    H1'  714   2.534   3.947   2.626 -6.3696 -1.6082  0.7583
   38EMI    H1'  715   2.595   3.786   2.642  1.8074  1.5073 -1.1479
   38EMI    C1"  716   2.098   3.796   2.915  0.3635  0.0335 -0.3557
   38EMI    H1"  717   2.034   3.852   2.845  0.7535  0.4651 -0.5390
   38EMI    H1"  718   2.088   3.845   3.018  0.3253  0.9942 -0.4229
   38EMI    C2"  719   2.051   3.649   2.924  0.2583  0.3867  0.3493
   38EMI    H2"  720   1.945   3.645   2.942  1.0962  2.5673 -3.8870
   38EMI    H2"  721   2.077   3.600   2.832 -3.1507 -1.5138  1.8177
   38EMI    H2"  722   2.104   3.595   3.006  0.9917  0.3098  0.3657
   39EMI     N1  723   4.966   1.353   2.941 -0.0012 -0.9666 -0.0136
   39EMI     C2  724   4.985   1.232   3.003  0.0887 -0.0025  0.4527
   39EMI     N3  725   5.110   1.229   3.054 -0.1262 -0.3256  0.1511
   39EMI     C4  726   5.176   1.340   3.009 -0.1004  0.4841 -0.5688
   39EMI     C5  727   5.086   1.418   2.946 -0.3881  0.1076  0.2141
   39EMI     H2  728   4.904   1.160   3.003  0.6986  1.0696  2.4868
   39EMI     H4  729   5.278   1.371   3.021 -2.6433 -1.6874 -0.2712
   39EMI     H5  730   5.109   1.521   2.890  1.1393 -0.8961  0.7157
   39EMI    C1'  731   5.182   1.123   3.124  0.4751 -0.4155 -0.4614
   39EMI    H1'  732   5.214   1.160   3.218 -1.8520 -0.8930  0.3304
   39EMI    H1'  733   5.115   1.040   3.143  1.1669 -1.0740 -0.4099
   39EMI    H1'  734   5.264   1.094   3.055  1.1882 -0.1825  0.5405
   39EMI    C1"  735   4.856   1.433   2.884  0.0080 -0.3358 -0.4023
   39EMI    H1"  736   4.886   1.543   2.873 -1.1338  1.9048  0.1929
   39EMI    H1"  737   4.766   1.423   2.941  1.8457  0.6675 -0.4794
   39EMI    C2"  738   4.829   1.364   2.754 -0.1189  0.3505 -0.6537
   39EMI    H2"  739   4.915   1.384   2.686 -1.3247  2.3117 -2.0699
   39EMI    H2"  740   4.820   1.259   2.766 -0.7826 -1.9308  2.4192
   39EMI    H2"  741   4.738   1.393   2.705 -1.8216 -2.7983  1.3654
   40EMI     N1  742   1.293   4.309   3.184  0.1024  0.2366  0.6076
   40EMI     C2  743   1.258   4.182   3.143 -0.1671 -0.4962  0.0431
   40EMI     N3  744   1.322   4.156   3.027  0.1519  0.4942 -0.4087
   40EMI     C4  745   1.390   4.273   2.989 -0.8464 -0.6007 -0.5482
   40EMI     C5  746   1.366   4.364   3.083  0.4735  0.1206  0.2022
   40EMI     H2  747   1.196   4.123   3.204 -2.1715  1.0371  0.5887
   40EMI     H4  748   1.447   4.292   2.901 -0.8152  1.9679 -0.4477
   40EMI     H5  749   1.397   4.465   3.082  0.3888  0.6132 -3.8168
   40EMI    C1'  750   1.343   4.032   2.955 -0.5528 -0.3198 -0.6282
   40EMI    H1'  751   1.319   4.050   2.850  0.3013 -1.3995 -2.2116
   40EMI    H1'  752   1.443   4.002   2.973 -1.9575 -0.8306  1.9479
   40EMI    H1'  753   1.275   3.948   2.993  1.3531 -2.6191  0.3702
   40EMI    C1"  754   1.252   4.379   3.304  0.1911  0.2897  0.4264
   40EMI    H1"  755   1.209   4.300   3.367 -0.4677 -0.8650 -0.2326
   40EMI    H1"  756   1.166   4.447   3.286 -0.9363 -0.4579  0.2633
   40EMI    C2"  757   1.366   4.444   3.385 -0.0082  0.3079  0.0805
   40EMI    H2"  758   1.458   4.388   3.383 -1.6720 -1.5001 -0.1252
   40EMI    H2"  759   1.380   4.537   3.337  0.0560 -0.8562  2.3853
   40EMI    H2"  760   1.331   4.456   3.484 -4.1114 -1.4821  0.0185
   41EMI     N1  761   1.899   4.912   2.463  0.2866  0.6909  0.3653
   41EMI     C2  762   1.773   4.925   2.512 -0.3646  0.4656  0.2495
   41EMI     N3  763   1.783   4.906   2.644 -0.2285  0.4280  0.6632
   41EMI     C4  764   1.911   4.878   2.683 -0.1560  0.4936 -0.5228
   41EMI     C5  765   1.979   4.882   2.567 -0.3003 -0.3053  0.3558
   41EMI     H2  766   1.683   4.937   2.456  0.4543 -1.3674  2.0822
   41EMI     H4  767   1.943   4.860   2.785 -0.3486 -0.1348  0.2313
   41EMI     H5  768   2.087   4.879   2.564 -2.0581 -0.5237  0.8291
   41EMI    C1'  769   1.679   4.928   2.747  0.5715 -0.2296 -0.2344
   41EMI    H1'  770   1.595   4.967   2.690  1.4121  1.2073  0.3424
   41EMI    H1'  771   1.655   4.834   2.796  0.6006 -1.4836  2.4992
   41EMI    H1'  772   1.701   5.018   2.813  0.2037  3.1788  1.0187
   41EMI    C1"  773   1.946   4.925   2.320 -0.4146  0.5934 -0.4385
   41EMI    H1"  774   2.052   4.939   2.314  0.6177 -1.1960  0.4092
   41EMI    H1"  775   1.904   5.020   2.282  3.8093  2.7181 -0.5906
   41EMI    C2"  776   1.897   4.811   2.224 -0.1413  0.4816 -0.3155
   41EMI    H2"  777   1.802   4.776   2.258 -1.3831 -1.8489 -1.0303
   41EMI    H2"  778   1.896   4.849   2.126  1.9203 -0.7869  2.2643
   41EMI    H2"  779   1.965   4.729   2.236  2.3033 -0.0545 -0.5227
   42EMI     N1  780   3.294   5.983   1.607  0.1279  0.7768  0.2032
   42EMI     C2  781   3.191   5.948   1.525  0.2490 -0.4037 -0.1521
   42EMI     N3  782   3.162   6.054   1.444 -0.5526 -0.8758  0.3925
   42EMI     C4  783   3.248   6.158   1.479 -1.4017  0.3448 -0.2427
   42EMI     C5  784   3.330   6.111   1.578 -0.2377  0.3199  0.5152
   42EMI     H2  785   3.130   5.856   1.525  1.2985  3.4480 -0.9634
   42EMI     H4  786   3.256   6.257   1.446 -2.1168 -1.4753  0.0233
   42EMI     H5  787   3.411   6.169   1.629  1.0144 -0.1265  0.7933
   42EMI    C1'  788   3.079   6.070   1.327  0.2475 -0.1350  0.1360
   42EMI    H1'  789   3.044   5.970   1.298  2.5239 -1.7866 -0.5897
   42EMI    H1'  790   2.984   6.127   1.360 -2.3253  0.2737  1.6657
   42EMI    H1'  791   3.129   6.126   1.250  1.8812  0.5484 -0.7773
   42EMI    C1"  792   3.367   5.915   1.714  0.5678  0.6514  0.6242
   42EMI    H1"  793   3.470   5.949   1.713 -0.8639 -1.6868  1.8611
   42EMI    H1"  794   3.359   5.807   1.684  1.0038 -1.7060 -0.9428
   42EMI    C2"  795   3.305   5.939   1.847 -0.3827 -0.4593  0.7092
   42EMI    H2"  796   3.212   5.892   1.858  2.2432  0.3332  2.7380
   42EMI    H2"  797   3.374   5.913   1.930  0.4244 -3.2978  1.7258
   42EMI    H2"  798   3.275   6.040   1.861 -1.1859  3.0055  1.5406
   43EMI     N1  799   4.278   4.665   4.172  0.0316  0.3518 -0.2881
   43EMI     C2  800   4.217   4.674   4.290 -0.0077 -1.0251 -0.0951
   43EMI     N3  801   4.116   4.585   4.292 -0.0449  0.4387  0.9150
   43EMI     C4  802   4.112   4.516   4.177  0.1610 -0.0142 -0.2765
   43EMI     C5  803   4.212   4.568   4.099  0.0276  0.6332 -0.1704
   43EMI     H2  804   4.253   4.739   4.359 -0.7808 -0.9467 -2.3757
   43EMI     H4  805   4.046   4.438   4.144 -2.7647  1.1604 -0.6458
   43EMI     H5  806   4.239   4.542   3.995  1.2565 -1.1261  1.5897
   43EMI    C1'  807   4.015   4.557   4.398  0.2375 -1.0724 -0.0094
   43EMI    H1'  808   3.919   4.599   4.354  1.2238  2.7524 -1.4426
   43EMI    H1'  809   3.993   4.454   4.409 -0.0347 -0.8800  0.5874
   43EMI    H1'  810   4.042   4.606   4.493 -1.8055 -0.2542 -0.0317
   43EMI    C1"  811   4.401   4.727   4.124  0.0455  0.3921  0.3224
   43EMI    H1"  812   4.451   4.673   4.041  2.5329  0.3028 -0.2178
   43EMI    H1"  813   4.475   4.735   4.206 -0.6587 -0.2218  2.7501
   43EMI    C2"  814   4.368   4.876   4.093  0.0570  0.4045 -0.5183
   43EMI    H2"  815   4.449   4.931   4.054 -0.8325 -1.9706 -0.0267
   43EMI    H2"  816   4.294   4.886   4.013  0.0674 -1.4160  0.7381
   43EMI    H2"  817   4.335   4.922   4.185  2.9807 -2.0894 -0.6483
   44EMI     N1  818   0.917   2.279   6.250 -0.6255  0.3741  0.0219
   44EMI     C2  819   0.978   2.247   6.129  0.7356  0.3408 -0.0105
   44EMI     N3  820   0.943   2.122   6.088  0.0367 -0.0745  0.0423
   44EMI     C4  821   0.859   2.074   6.184 -1.1285 -0.2913 -0.0225
   44EMI     C5  822   0.840   2.171   6.282  0.3126  0.3829 -0.2913
   44EMI     H2  823   1.020   2.312   6.058 -2.1228  0.9195 -0.5113
   44EMI     H4  824   0.815   1.971   6.175 -0.1969 -2.7765 -0.0877
   44EMI     H5  825   0.779   2.160   6.370  1.3919 -1.1131  2.7673
   44EMI    C1'  826   0.988   2.050   5.964  0.7958 -0.3253  0.2550
   44EMI    H1'  827   1.001   2.128   5.883 -0.3583  2.5978  0.4663
   44EMI    H1'  828   1.079   1.993   5.986  2.4398 -3.4045 -0.0431
   44EMI    H1'  829   0.917   1.984   5.923  1.2237 -2.7074  0.4859
   44EMI    C1"  830   0.942   2.394   6.341 -0.3441  0.4590  0.3194
   44EMI    H1"  831   0.909   2.364   6.446  1.4724  0.5066  0.4246
   44EMI    H1"  832   0.885   2.466   6.288 -2.0990 -1.1507  0.5572
   44EMI    C2"  833   1.090   2.422   6.350 -0.2662 -0.1069 -0.1817
   44EMI    H2"  834   1.129   2.417   6.250  2.5909  1.6175 -1.7552
   44EMI    H2"  835   1.095   2.527   6.386 -2.7344 -1.1642  2.9314
   44EMI    H2"  836   1.144   2.344   6.415  2.7592  0.3035  2.2641
   45EMI     N1  837   1.711   4.533   2.610 -0.0202  0.1480 -0.4040
   45EMI     C2  838   1.835   4.490   2.622 -0.4038  0.0749 -0.7226
   45EMI     N3  839   1.901   4.492   2.510  0.8407  0.0630 -0.3664
   45EMI     C4  840   1.806   4.532   2.419 -0.8109  0.5710  1.0284
   45EMI     C5  841   1.693   4.560   2.482 -0.4775 -0.4876 -0.0671
   45EMI     H2  842   1.879   4.480   2.722 -1.1938 -2.4805 -0.3088
   45EMI     H4  843   1.821   4.546   2.312 -0.1089  0.6703  1.4985
   45EMI     H5  844   1.597   4.581   2.441 -0.5878 -0.8109  2.7758
   45EMI    C1'  845   2.044   4.483   2.483 -0.0425 -0.1379  0.7389
   45EMI    H1'  846   2.067   4.552   2.394  0.3405  1.6277  1.7855
   45EMI    H1'  847   2.106   4.530   2.569 -0.6705  0.8243  0.0576
   45EMI    H1'  848   2.072   4.387   2.442  2.2179 -0.1770 -2.4296
   45EMI    C1"  849   1.609   4.555   2.716 -0.3392 -0.5509 -0.7223
   45EMI    H1"  850   1.538   4.476   2.709  0.4853 -1.7010  0.3006
   45EMI    H1"  851   1.563   4.648   2.687  0.4941 -0.9174 -2.0260
   45EMI    C2"  852   1.654   4.569   2.862 -0.0028  0.0026  0.2121
   45EMI    H2"  853   1.754   4.594   2.862 -2.2077 -3.2804  0.7988
   45EMI    H2"  854   1.591   4.645   2.913 -3.5011  1.9839  1.1918
   45EMI    H2"  855   1.651   4.477   2.917 -0.1854 -3.1820 -2.3258
   46EMI     N1  856   5.412   2.626   1.550  0.2587 -0.2600 -0.0430
   46EMI     C2  857   5.314   2.680   1.471  0.0369  0.1729 -0.0000
   46EMI     N3  858   5.303   2.596   1.362  0.0103 -0.2075 -0.0028
   46EMI     C4  859   5.408   2.509   1.365 -0.1269  0.4456  0.4521
   46EMI     C5  860   5.475   2.526   1.478  0.0277 -0.9703 -0.6393
   46EMI     H2  861   5.248   2.755   1.502  0.5416 -3.0477  0.9934
   46EMI     H4  862   5.432   2.434   1.292 -0.9548  0.8563  1.8022
   46EMI     H5  863   5.561   2.472   1.494  0.8881  1.7307  0.1500
   46EMI    C1'  864   5.197   2.590   1.256  0.4379  0.1673 -0.5839
   46EMI    H1'  865   5.155   2.693   1.230 -1.4057  0.5431 -1.9702
   46EMI    H1'  866   5.228   2.530   1.170 -0.1672 -2.3324 -1.4282
   46EMI    H1'  867   5.119   2.529   1.304 -0.1316  1.2170 -0.2788
   46EMI    C1"  868   5.448   2.664   1.688 -0.3836 -0.4060  0.6958
   46EMI    H1"  869   5.473   2.772   1.698  1.3402  0.1055 -0.7689
   46EMI    H1"  870   5.540   2.602   1.707  1.9361 -2.9746 -0.1277
   46EMI    C2"  871   5.333   2.648   1.787  0.1843 -0.4219  0.4639
   46EMI    H2"  872   5.365   2.666   1.888 -1.4416 -2.2375 -0.0766
   46EMI    H2"  873   5.258   2.725   1.759  0.2703  0.5038  2.4353
   46EMI    H2"  874   5.289   2.550   1.780 -1.5433 -2.0622 -1.7308
   47EMI     N1  875   1.369   5.370   4.921  0.2337  0.1109 -0.5866
   47EMI     C2  876   1.398   5.243   4.968 -0.4789 -0.6031 -0.0328
   47EMI     N3  877   1.345   5.225   5.087  0.2904 -0.1208 -0.2560
   47EMI     C4  878   1.284   5.344   5.122  0.2900 -0.0133  0.0539
   47EMI     C5  879   1.294   5.430   5.022 -0.0268 -0.5317  0.1582
   47EMI     H2  880   1.468   5.170   4.925 -3.2269  1.1441 -0.2004
   47EMI     H4  881   1.226   5.364   5.217 -2.4400  1.0569  2.0935
   47EMI     H5  882   1.263   5.532   5.026  1.1946  0.4756 -1.2139
   47EMI    C1'  883   1.345   5.101   5.169 -0.4157  0.4758  0.0381
   47EMI    H1'  884   1.380   5.017   5.113  0.6514  2.2487  2.5020
   47EMI    H1'  885   1.413   5.125   5.252  2.2966  1.6044  0.8137
   47EMI    H1'  886   1.242   5.089   5.212 -0.9327 -1.9926  2.0939
   47EMI    C1"  887   1.415   5.440   4.800  0.0477 -0.4002 -0.2379
   47EMI    H1"  888   1.518   5.473   4.818 -1.3251  0.8619  1.7732
   47EMI    H1"  889   1.353   5.526   4.782 -0.8515  1.0817 -0.1004
   47EMI    C2"  890   1.420   5.350   4.674  0.5627  0.6972 -0.6844
   47EMI    H2"  891   1.520   5.301   4.690  0.8194 -1.4051  0.8400
   47EMI    H2"  892   1.348   5.268   4.670 -0.8312 -0.4318 -1.0447
   47EMI    H2"  893   1.415   5.412   4.584 -1.2802  1.3354  0.6916
   48EMI     N1  894   0.433   0.532   1.652 -0.0357 -0.0933 -0.4309
   48EMI     C2  895   0.437   0.413   1.698 -0.4344  0.0242 -0.4127
   48EMI     N3  896   0.327   0.343   1.666 -0.2323 -0.2058  0.3394
   48EMI     C4  897   0.249   0.426   1.589 -0.1212  0.0948  0.1363
   48EMI     C5  898   0.313   0.544   1.584  0.0737  0.0737  0.2683
   48EMI     H2  899   0.525   0.377   1.754  1.4498 -1.1706 -1.7651
   48EMI     H4  900   0.149   0.415   1.541 -0.5449 -0.4062 -2.3781
   48EMI     H5  901   0.271   0.628   1.527  2.6669  0.8153  0.8079
   48EMI    C1'  902   0.303   0.202   1.691  0.3609 -0.2767  0.0306
   48EMI    H1'  903   0.279   0.181   1.793 -2.1471 -1.3281 -1.7650
   48EMI    H1'  904   0.216   0.163   1.644  0.6776 -0.3152 -0.0086
   48EMI    H1'  905   0.385   0.143   1.664 -0.3880 -0.7738 -0.9381
   48EMI    C1"  906   0.531   0.643   1.664 -0.2165  0.2729  0.7387
   48EMI    H1"  907   0.550   0.680   1.563 -2.7304 -2.9741  2.2783
   48EMI    H1"  908   0.620   0.609   1.704 -1.7365 -0.9264 -2.1204
   48EMI    C2"  909   0.477   0.761   1.744 -0.0130  0.1714 -0.2614
   48EMI    H2"  910   0.465   0.723   1.842  0.0828  2.8254  0.4913
   48EMI    H2"  911   0.545   0.849   1.744  0.5563 -0.0070 -1.7440
   48EMI    H2"  912   0.388   0.791   1.701  2.8941 -1.8422  0.5534
   49EMI     N1  913   1.027   3.856   4.577 -0.3246  0.2399 -0.3969
   49EMI     C2  914   1.000   3.794   4.459 -0.0103 -0.2357  0.2115
   49EMI     N3  915   0.876   3.828   4.416  0.5625  0.2178 -0.4952
   49EMI     C4  916   0.828   3.917   4.505  0.6877  0.0370  0.2008
   49EMI     C5  917   0.917   3.934   4.606 -0.1996 -0.2980 -0.2107
   49EMI     H2  918   1.070   3.727   4.409  1.5444 -0.3513 -1.3599
   49EMI     H4  919   0.729   3.963   4.507  2.2004  0.3661  0.0456
   49EMI     H5  920   0.907   4.004   4.689 -1.0852  0.6813  0.7635
   49EMI    C1'  921   0.810   3.786   4.292 -0.2438 -0.1625  0.0554
   49EMI    H1'  922   0.870   3.799   4.204 -0.9152 -1.8798 -0.3044
   49EMI    H1'  923   0.805   3.683   4.315 -2.2146  1.4782  0.7518
   49EMI    H1'  924   0.710   3.820   4.267 -0.0144 -0.9307 -1.4947
   49EMI    C1"  925   1.154   3.870   4.655  0.5953  0.2949 -1.1257
   49EMI    H1"  926   1.139   3.945   4.740  0.2947  0.8273 -0.3604
   49EMI    H1"  927   1.236   3.901   4.587 -0.3047 -1.1053 -2.4635
   49EMI    C2"  928   1.186   3.730   4.714 -0.0275 -0.0183  0.6289
   49EMI    H2"  929   1.097   3.699   4.766 -1.3691 -1.7058  1.6534
   49EMI    H2"  930   1.206   3.663   4.634  0.5200  3.0197 -2.7892
   49EMI    H2"  931   1.264   3.740   4.784  0.3410  0.0661  2.7293
   50EMI     N1  932   0.201   0.128   0.347 -0.4845 -0.0101  0.2430
   50EMI     C2  933   0.285   0.211   0.275 -0.3249  0.4206  0.4294
   50EMI     N3  934   0.346   0.294   0.369  1.0509 -0.0430  0.0462
   50EMI     C4  935   0.307   0.251   0.496  0.4650 -0.2671 -0.0595
   50EMI     C5  936   0.222   0.148   0.483  0.2576 -0.6565  0.2968
   50EMI     H2  937   0.290   0.225   0.170  1.4883  1.5698  1.9140
   50EMI     H4  938   0.345   0.289   0.588  1.8960  0.5040  0.7872
   50EMI     H5  939   0.174   0.088   0.559  1.7122  1.4365 -2.9475
   50EMI    C1'  940   0.458   0.382   0.353  0.3760  0.2547 -0.7596
   50EMI    H1'  941   0.545   0.321   0.360  0.5321 -0.3934  0.5439
   50EMI    H1'  942   0.464   0.426   0.258  1.1602 -0.5169 -1.3261
   50EMI    H1'  943   0.457   0.457   0.428  0.3469  1.1098  2.8201
   50EMI    C1"  944   0.111   0.032   0.296  0.3905  1.1950 -0.3335
   50EMI    H1"  945   0.094  -0.037   0.375 -0.5928 -0.2102  1.9598
   50EMI    H1"  946   0.151  -0.025   0.212  0.0821  0.4476 -1.0533
   50EMI    C2"  947  -0.019   0.098   0.243 -0.2349 -0.5390  0.9238
   50EMI    H2"  948  -0.077   0.026   0.189  0.4448 -0.5169 -2.4188
   50EMI    H2"  949  -0.076   0.139   0.332 -3.0100  0.2190  0.9487
   50EMI    H2"  950  -0.000   0.175   0.173 -3.9884 -5.0090  0.4136
   51EMI     N1  951   2.202   1.833   4.888  0.2293  0.1280  0.6558
   51EMI     C2  952   2.339   1.845   4.900 -0.3204 -0.2458 -0.1956
   51EMI     N3  953   2.389   1.730   4.954 -0.1015 -0.5539  0.2002
   51EMI     C4  954   2.287   1.642   4.971 -0.6412  0.3766  0.4838
   51EMI     C5  955   2.172   1.704   4.937 -0.2095  0.1721 -0.0545
   51EMI     H2  956   2.401   1.925   4.863  1.4576 -1.3194  0.1904
   51EMI     H4  957   2.283   1.538   5.008  0.1321  0.9688  1.2531
   51EMI     H5  958   2.073   1.657   4.950 -2.4727 -1.0404 -1.8938
   51EMI    C1'  959   2.523   1.701   4.988  0.2970  0.6196 -0.5388
   51EMI    H1'  960   2.522   1.641   5.079 -0.6197 -1.6815 -0.8218
   51EMI    H1'  961   2.568   1.636   4.919 -0.2472  0.8502  0.0928
   51EMI    H1'  962   2.575   1.795   5.010 -0.1697 -1.0332  0.0520
   51EMI    C1"  963   2.098   1.924   4.844 -0.3879  0.0176  0.8274
   51EMI    H1"  964   2.013   1.871   4.813  1.6280 -2.7511  2.3321
   51EMI    H1"  965   2.132   1.994   4.766  1.2972 -0.0971 -2.9376
   51EMI    C2"  966   2.071   2.020   4.961  0.1618 -0.0144  0.3093
   51EMI    H2"  967   1.990   2.085   4.943  2.5199 -1.7828 -2.5977
   51EMI    H2"  968   2.054   1.966   5.048 -0.5003  0.2656 -2.9626
   51EMI    H2"  969   2.167   2.068   4.976 -1.4368  1.3314 -1.3175
   52EMI     N1  970   2.247   3.207   0.415  0.1526  0.7820 -0.3276
   52EMI     C2  971   2.143   3.117   0.395 -0.0317  0.3660  0.6892
   52EMI     N3  972   2.133   3.072   0.271  0.3130 -0.0865 -0.7396
   52EMI     C4  973   2.241   3.130   0.204  0.5632 -0.1975  0.3667
   52EMI     C5  974   2.307   3.211   0.291 -0.4984 -0.7459 -0.1073
   52EMI     H2  975   2.072   3.085   0.466  2.0963 -2.0934  2.1070
   52EMI     H4  976   2.257   3.121   0.092  3.1585 -1.9588 -1.4717
   52EMI     H5  977   2.388   3.279   0.275 -2.2453  0.4866  3.6828
   52EMI    C1'  978   2.034   2.990   0.199  0.0025  0.3642 -0.3663
   52EMI    H1'  979   2.068   2.904   0.151  0.4083 -2.3014 -0.8844
   52EMI    H1'  980   1.962   2.945   0.266  2.2928 -0.1734 -1.0858
   52EMI    H1'  981   1.987   3.049   0.115 -3.6919  0.6136  2.4696
   52EMI    C1"  982   2.281   3.294   0.528  0.2518  0.2739 -0.0349
   52EMI    H1"  983   2.376   3.337   0.527  1.7983 -1.2665 -0.8256
   52EMI    H1"  984   2.288   3.229   0.612  1.4789  3.6838 -2.1754
   52EMI    C2"  985   2.175   3.399   0.550 -0.1663  0.2640 -0.2381
   52EMI    H2"  986   2.191   3.463   0.634 -2.9002 -0.1639  0.7120
   52EMI    H2"  987   2.173   3.466   0.465  2.6594 -0.2882  2.9390
   52EMI    H2"  988   2.077   3.356   0.547  2.3999  0.6711 -0.4991
   53EMI     N1  989   1.006   5.203   0.837 -0.3773  0.4318 -0.1327
   53EMI     C2  990   1.061   5.190   0.959 -0.5783  0.3079  0.1675
   53EMI     N3  991   1.071   5.060   0.990 -0.1706 -0.0451 -0.7820
   53EMI     C4  992   1.021   4.984   0.887  1.0615 -0.2896  0.2347
   53EMI     C5  993   0.975   5.073   0.794 -0.2199 -0.1152 -0.0880
   53EMI     H2  994   1.103   5.270   1.024  0.2415  0.6170  1.0117
   53EMI     H4  995   1.015   4.875   0.898  1.3544  0.6441 -0.0500
   53EMI     H5  996   0.907   5.053   0.711 -1.8800 -0.0498  0.3312
   53EMI    C1'  997   1.135   4.998   1.111  0.0566  0.4247 -0.4420
   53EMI    H1'  998   1.221   4.943   1.076  0.5353  0.3325 -1.8819
   53EMI    H1'  999   1.162   5.075   1.187 -1.6118 -0.7546 -1.4860
   53EMI    H1' 1000   1.064   4.935   1.167 -2.6247 -1.7906  0.5926
   53EMI    C1" 1001   0.958   5.323   0.772 -0.2449  0.7547 -0.0567
   53EMI    H1" 1002   0.972   5.313   0.669  2.6402  0.9239 -0.4515
   53EMI    H1" 1003   1.024   5.405   0.808 -2.5003  1.0390  2.3875
   53EMI    C2" 1004   0.812   5.354   0.784 -0.3709 -0.2587 -0.0984
   53EMI    H2" 1005   0.755   5.271   0.757  2.0294 -0.1301  0.9727
   53EMI    H2" 1006   0.783   5.384   0.878  4.6776 -2.8490 -2.7086
   53EMI    H2" 1007   0.790   5.431   0.713 -1.5056  1.4548 -1.1939
   54EMI     N1 1008   2.481   0.164   2.037 -0.2643 -0.0150 -0.8506
   54EMI     C2 1009   2.475   0.301   2.041 -0.1657 -0.1140 -0.5158
   54EMI     N3 1010   2.467   0.343   1.911 -0.2101 -0.4232  0.5989
   54EMI     C4 1011   2.479   0.234   1.832  0.8428  0.0052 -0.0257
   54EMI     C5 1012   2.492   0.121   1.903  0.4203 -0.0766  0.2909
   54EMI     H2 1013   2.484   0.367   2.127  0.6076  0.7019 -2.3362
   54EMI     H4 1014   2.482   0.237   1.725  0.7298  1.1210  1.8161
   54EMI     H5 1015   2.500   0.016   1.869 -0.1789  0.0729  1.2931
   54EMI    C1' 1016   2.490   0.474   1.856  0.2499  0.3624  0.0022
   54EMI    H1' 1017   2.507   0.466   1.749  2.8740 -0.8230  3.2891
   54EMI    H1' 1018   2.409   0.544   1.860 -0.2683 -0.0158  2.1850
   54EMI    H1' 1019   2.567   0.534   1.911  0.3665 -0.8425  0.7727
   54EMI    C1" 1020   2.476   0.067   2.147 -0.4087  0.1529 -0.3460
   54EMI    H1" 1021   2.472  -0.034   2.096  1.3146 -2.2816 -1.3585
   54EMI    H1" 1022   2.398   0.077   2.220 -0.1613 -0.3688 -2.7579
   54EMI    C2" 1023   2.612   0.060   2.218  0.1357 -0.2825 -0.7093
   54EMI    H2" 1024   2.629  -0.025   2.287  0.1880 -0.5163  1.4528
   54EMI    H2" 1025   2.687   0.069   2.138 -0.0633  0.7499 -1.6079
   54EMI    H2" 1026   2.605   0.151   2.283  0.2229  0.1827  1.0619
   55EMI     N1 1027   1.488   5.823   5.254 -0.3637  0.0308  0.1498
   55EMI     C2 1028   1.449   5.868   5.373 -0.2446 -1.2433 -0.0267
   55EMI     N3 1029   1.345   5.949   5.356  0.4672 -0.6472 -0.4130
   55EMI     C4 1030   1.321   5.952   5.222 -0.4541 -0.0961 -0.3829
   55EMI     C5 1031   1.404   5.867   5.158 -0.6433  0.0798  0.6792
   55EMI     H2 1032   1.484   5.835   5.474  1.0429  2.1455 -1.7429
   55EMI     H4 1033   1.234   5.998   5.179 -0.0799  0.6312 -3.0159
   55EMI     H5 1034   1.420   5.839   5.058  1.4147 -0.9215  1.3850
   55EMI    C1' 1035   1.246   5.997   5.452  0.1371 -0.2752  0.1557
   55EMI    H1' 1036   1.270   6.083   5.496  0.3495 -2.3721  1.5251
   55EMI    H1' 1037   1.148   5.995   5.409  0.0676  2.3630  0.0832
   55EMI    H1' 1038   1.236   5.933   5.534  0.6444 -0.6022 -2.2668
   55EMI    C1" 1039   1.582   5.716   5.227  0.0730  0.3847 -0.7942
   55EMI    H1" 1040   1.562   5.666   5.132 -0.3916 -1.5947 -0.8743
   55EMI    H1" 1041   1.576   5.638   5.302  0.6684 -0.0078 -1.0298
   55EMI    C2" 1042   1.724   5.776   5.238 -0.1227 -0.6452  0.2623
   55EMI    H2" 1043   1.790   5.683   5.235 -0.0308 -0.8495  1.2177
   55EMI    H2" 1044   1.744   5.834   5.155 -1.3827 -2.5384  1.9685
   55EMI    H2" 1045   1.721   5.840   5.325  0.7155 -0.4155  0.7493
   56EMI     N1 1046   3.190   1.401   5.372  0.0321  1.3578 -0.6542
   56EMI     C2 1047   3.172   1.484   5.482  0.7192  0.0757 -0.0363
   56EMI     N3 1048   3.055   1.552   5.470  0.3820  0.6012 -0.1657
   56EMI     C4 1049   2.998   1.506   5.358  0.9495 -0.5010 -0.6702
   56EMI     C5 1050   3.079   1.418   5.295 -0.3613  0.1827 -0.1550
   56EMI     H2 1051   3.232   1.490   5.575 -1.3742  1.2234 -1.7976
   56EMI     H4 1052   2.898   1.533   5.323 -1.9435 -1.0256 -0.5749
   56EMI     H5 1053   3.069   1.373   5.200  1.7137  2.7351  0.4892
   56EMI    C1' 1054   2.979   1.633   5.565 -0.8400 -0.8693 -0.2346
   56EMI    H1' 1055   2.894   1.671   5.517  1.7035 -0.1741 -2.3235
   56EMI    H1' 1056   2.951   1.580   5.652  0.2388  0.1988  0.0920
   56EMI    H1' 1057   3.045   1.721   5.597  4.4314  1.7234 -4.7262
   56EMI    C1" 1058   3.305   1.321   5.334 -0.6262 -0.9344  0.3138
   56EMI    H1" 1059   3.258   1.241   5.272 -1.9887  0.9281  0.2678
   56EMI    H1" 1060   3.351   1.293   5.424 -0.6275  0.9097 -1.0969
   56EMI    C2" 1061   3.404   1.396   5.245 -0.9478  0.6296  0.3860
   56EMI    H2" 1062   3.463   1.469   5.294  4.1539 -1.0110 -0.9425
   56EMI    H2" 1063   3.472   1.321   5.194 -1.6886 -0.1862  0.4654
   56EMI    H2" 1064   3.346   1.463   5.174  0.1675  2.5821  1.9710
   57EMI     N1 1065   4.661   5.286   0.148  0.2907 -0.6223  0.3115
   57EMI     C2 1066   4.565   5.257   0.240 -1.4710  0.1938  0.0810
   57EMI     N3 1067   4.601   5.170   0.333 -0.2602  0.5310  0.6162
   57EMI     C4 1068   4.736   5.139   0.301  0.0676  0.3332  0.1652
   57EMI     C5 1069   4.770   5.212   0.195 -0.4820  0.1091  0.2305
   57EMI     H2 1070   4.461   5.283   0.235 -1.0809 -2.1486 -0.9749
   57EMI     H4 1071   4.787   5.063   0.352 -1.5567  0.7984 -3.4606
   57EMI     H5 1072   4.872   5.213   0.153  1.9105 -0.7275  2.2339
   57EMI    C1' 1073   4.529   5.082   0.416 -0.0685  0.3851  0.3617
   57EMI    H1' 1074   4.582   5.067   0.512 -0.5591  2.4560  1.5282
   57EMI    H1' 1075   4.429   5.118   0.425  1.2740  0.5861  0.7455
   57EMI    H1' 1076   4.523   4.988   0.367  1.5445  1.6951 -0.3935
   57EMI    C1" 1077   4.664   5.377   0.029  0.1665  0.2473 -0.4863
   57EMI    H1" 1078   4.768   5.401   0.006 -0.8538 -0.7020  2.1339
   57EMI    H1" 1079   4.615   5.471   0.045  1.2746  0.9545 -0.8592
   57EMI    C2" 1080   4.591   5.318  -0.098  0.0702  0.3581 -0.2959
   57EMI    H2" 1081   4.614   5.377  -0.182 -1.5440  0.6447  4.0140
   57EMI    H2" 1082   4.620   5.213  -0.104  1.7413  2.4829  1.4101
   57EMI    H2" 1083   4.480   5.343  -0.091  0.6219 -0.4207 -1.3046
   58EMI     N1 1084   5.192   5.640   5.102 -0.2935 -0.9004  0.0404
   58EMI     C2 1085   5.194   5.545   5.009  1.0343  0.0869 -0.1300
   58EMI     N3 1086   5.236   5.431   5.065 -0.0649  0.2237 -0.4686
   58EMI     C4 1087   5.265   5.456   5.196 -0.2132 -0.1371  0.1414
   58EMI     C5 1088   5.230   5.584   5.223  0.2756 -0.0636  0.0778
   58EMI     H2 1089   5.183   5.555   4.901  0.7542 -0.8918  0.2678
   58EMI     H4 1090   5.322   5.389   5.261 -0.9159  0.1261 -2.6237
   58EMI     H5 1091   5.241   5.637   5.309 -1.5438  2.1129  0.8405
   58EMI    C1' 1092   5.275   5.301   4.998 -0.1466 -0.0851  0.1783
   58EMI    H1' 1093   5.386   5.286   4.983  1.3872  0.9345 -2.4480
   58EMI    H1' 1094   5.238   5.215   5.052  0.0794  1.4515 -0.4586
   58EMI    H1' 1095   5.229   5.287   4.901  3.9012 -2.1751  0.7480
   58EMI    C1" 1096   5.158   5.782   5.085 -0.2339  0.5853  0.7795
   58EMI    H1" 1097   5.165   5.816   4.980 -0.3534  1.7153  1.5280
   58EMI    H1" 1098   5.217   5.859   5.136  0.9248  1.4741 -3.4663
   58EMI    C2" 1099   5.011   5.808   5.134 -0.3094 -0.4005  0.4044
   58EMI    H2" 1100   4.974   5.904   5.124  1.4781 -1.1537  0.0465
   58EMI    H2" 1101   4.942   5.740   5.083 -1.9692 -0.2801  3.0752
   58EMI    H2" 1102   5.008   5.782   5.234 -0.5610  1.4356  1.0442
   59EMI     N1 1103   2.485   2.973   5.529  0.3695 -0.6165 -0.2059
   59EMI     C2 1104   2.472   2.906   5.646 -0.0943 -0.5159 -0.6107
   59EMI     N3 1105   2.529   2.980   5.746  0.8345  0.7803  0.1697
   59EMI     C4 1106   2.573   3.092   5.689  0.3756  0.4199  0.5239
   59EMI     C5 1107   2.554   3.085   5.556 -0.2516  0.5525 -0.1866
   59EMI     H2 1108   2.407   2.821   5.663 -4.1098  1.5790  0.6597
   59EMI     H4 1109   2.625   3.171   5.745  1.5404 -1.3556  0.4768
   59EMI     H5 1110   2.590   3.157   5.485 -1.7416 -3.2206 -1.6051
   59EMI    C1' 1111   2.527   2.967   5.888 -0.6055  0.5038 -0.5472
   59EMI    H1' 1112   2.548   2.862   5.915  2.6343  0.2745  0.1474
   59EMI    H1' 1113   2.616   3.017   5.938 -0.0089  1.7265  0.7372
   59EMI    H1' 1114   2.439   3.005   5.934  3.1138  0.7507  1.3296
   59EMI    C1" 1115   2.443   2.932   5.393 -0.7618 -0.1765  0.7354
   59EMI    H1" 1116   2.351   2.983   5.365 -1.7550  1.7578  0.7104
   59EMI    H1" 1117   2.419   2.825   5.389  0.3059  0.7283 -0.5431
   59EMI    C2" 1118   2.555   2.962   5.284 -0.0513  0.1972 -0.7662
   59EMI    H2" 1119   2.647   2.948   5.339 -0.4136  0.4500  1.7138
   59EMI    H2" 1120   2.544   2.897   5.196  0.5088 -2.7461  3.5153
   59EMI    H2" 1121   2.542   3.067   5.253 -0.9512 -0.0660 -0.6333
   60EMI     N1 1122   3.667   0.046   2.631  0.5624 -0.4585 -0.2839
   60EMI     C2 1123   3.738  -0.067   2.661 -0.0192 -0.2606  0.6624
   60EMI     N3 1124   3.660  -0.172   2.634 -0.5353 -0.4597 -0.2626
   60EMI     C4 1125   3.540  -0.122   2.577 -0.0078 -0.8465 -0.8737
   60EMI     C5 1126   3.542   0.014   2.586  0.2951  0.4150 -0.2394
   60EMI     H2 1127   3.843  -0.081   2.703  2.6726  0.3415 -0.2824
   60EMI     H4 1128   3.452  -0.182   2.544 -2.5358  1.1002  3.0686
   60EMI     H5 1129   3.475   0.092   2.554 -0.3362  1.2348  1.0984
   60EMI    C1' 1130   3.688  -0.314   2.657 -0.3769 -0.0705  0.6274
   60EMI    H1' 1131   3.641  -0.378   2.585  1.5929 -2.4557  2.9945
   60EMI    H1' 1132   3.794  -0.342   2.638 -1.1111  1.4757 -3.5323
   60EMI    H1' 1133   3.662  -0.347   2.759  2.2385  0.0892  1.6789
   60EMI    C1" 1134   3.707   0.191   2.645 -0.1220 -0.2171  0.2040
   60EMI    H1" 1135   3.615   0.241   2.673 -1.8893 -1.5924 -1.6952
   60EMI    H1" 1136   3.749   0.231   2.547  1.2144 -1.1794  0.3074
   60EMI    C2" 1137   3.814   0.193   2.760 -0.4485 -0.0924  0.1431
   60EMI    H2" 1138   3.897   0.142   2.724 -3.5231 -1.3282 -0.7800
   60EMI    H2" 1139   3.824   0.297   2.779 -0.3369  1.7880 -3.0725
   60EMI    H2" 1140   3.777   0.143   2.846  2.9342 -0.2658 -0.0331
   61EMI     N1 1141   0.001   6.049   3.677  0.1503  0.2149  0.0722
   61EMI     C2 1142   0.078   6.100   3.576 -0.3465  0.4300 -0.5849
   61EMI     N3 1143   0.108   6.230   3.596 -0.5913  0.5748 -0.8612
   61EMI     C4 1144   0.061   6.254   3.722 -0.2659 -0.1451 -0.8269
   61EMI     C5 1145   0.003   6.145   3.774 -0.8290  0.0233  0.6446
   61EMI     H2 1146   0.091   6.055   3.479 -0.2967 -0.0618 -1.3301
   61EMI     H4 1147   0.074   6.353   3.767  0.4657 -0.9609  1.3041
   61EMI     H5 1148  -0.042   6.143   3.868 -1.6662  0.1271 -1.5949
   61EMI    C1' 1149   0.193   6.316   3.511  0.0843  0.0253 -0.1061
   61EMI    H1' 1150   0.278   6.333   3.568 -0.3323 -2.0207 -2.7249
   61EMI    H1' 1151   0.217   6.247   3.431 -3.5313  1.3314  1.6968
   61EMI    H1' 1152   0.144   6.405   3.481  0.5011 -1.5240 -2.1122
   61EMI    C1" 1153  -0.085   5.920   3.675 -0.0513 -0.5522  0.7418
   61EMI    H1" 1154  -0.040   5.852   3.606 -0.1114  3.3390  1.3514
   61EMI    H1" 1155  -0.178   5.946   3.631  1.2500  2.1082 -1.9687
   61EMI    C2" 1156  -0.118   5.851   3.810  0.6070  0.1057 -0.7393
   61EMI    H2" 1157  -0.145   5.928   3.883 -0.2664  0.6543 -0.8805
   61EMI    H2" 1158  -0.205   5.780   3.804 -1.7853  1.4976 -0.2657
   61EMI    H2" 1159  -0.032   5.803   3.839 -0.6051  0.4510 -1.6589
   62EMI     N1 1160   3.187   4.782   4.913 -0.4996  0.5949  0.7621
   62EMI     C2 1161   3.286   4.720   4.985  0.1228 -0.6820 -0.9279
   62EMI     N3 1162   3.260   4.722   5.116 -0.6826  0.0856 -0.3300
   62EMI     C4 1163   3.134   4.778   5.123  0.1712  0.3140 -0.0140
   62EMI     C5 1164   3.091   4.820   5.001 -0.7108  0.4612 -0.2985
   62EMI     H2 1165   3.380   4.685   4.952 -1.2207 -0.6155  1.2905
   62EMI     H4 1166   3.080   4.792   5.219 -0.5344 -0.7314  0.0110
   62EMI     H5 1167   3.010   4.881   4.973  1.0995 -2.3056  1.5192
   62EMI    C1' 1168   3.345   4.685   5.229  0.5943 -0.7744  0.5955
   62EMI    H1' 1169   3.434   4.739   5.206  2.0423 -0.1484 -0.0187
   62EMI    H1' 1170   3.308   4.716   5.326 -0.2097 -2.4213  1.3589
   62EMI    H1' 1171   3.374   4.578   5.235 -1.4201 -0.6635  1.1597
   62EMI    C1" 1172   3.183   4.813   4.769 -0.7010 -0.0697 -0.2166
   62EMI    H1" 1173   3.281   4.798   4.725 -0.1239  2.3479 -0.9902
   62EMI    H1" 1174   3.150   4.918   4.763 -0.9114  2.7125 -2.1924
   62EMI    C2" 1175   3.075   4.721   4.711  0.1235  0.4254  0.1319
   62EMI    H2" 1176   3.099   4.622   4.732  1.9640  0.9112 -1.1318
   62EMI    H2" 1177   2.984   4.748   4.769  0.2775 -1.2751  3.8699
   62EMI    H2" 1178   3.071   4.728   4.605 -0.3614 -1.8187  0.0754
   63EMI     N1 1179   2.309   5.417   3.787 -0.2508 -0.4096  0.0136
   63EMI     C2 1180   2.248   5.305   3.840 -0.0498  0.0603  0.5710
   63EMI     N3 1181   2.127   5.296   3.771  0.0268 -0.4186 -0.2331
   63EMI     C4 1182   2.122   5.398   3.670 -0.2799  0.2771  0.3206
   63EMI     C5 1183   2.235   5.473   3.681  1.1990  0.3421  0.0553
   63EMI     H2 1184   2.301   5.236   3.907 -0.6912 -1.2990  0.5264
   63EMI     H4 1185   2.051   5.423   3.603 -1.4429 -1.3559 -1.5494
   63EMI     H5 1186   2.266   5.554   3.619  0.9832  2.9599 -0.4184
   63EMI    C1' 1187   2.024   5.190   3.778 -0.6057 -0.4062 -0.0592
   63EMI    H1' 1188   2.063   5.108   3.726 -0.4270  0.3120 -1.6540
   63EMI    H1' 1189   2.021   5.165   3.883  0.5766 -1.9583 -0.7291
   63EMI    H1' 1190   1.928   5.230   3.739 -2.3004  1.6421  2.6448
   63EMI    C1" 1191   2.438   5.482   3.824 -0.9193 -0.5711  0.1601
   63EMI    H1" 1192   2.470   5.445   3.919 -1.8351  0.6075 -1.4159
   63EMI    H1" 1193   2.406   5.582   3.826  0.1848 -1.9141  1.9809
   63EMI    C2" 1194   2.549   5.462   3.718  1.0567 -0.4601  0.7657
   63EMI    H2" 1195   2.507   5.464   3.616  2.0370 -0.3374 -0.4803
   63EMI    H2" 1196   2.616   5.545   3.737 -1.7679  1.4548  1.8125
   63EMI    H2" 1197   2.581   5.362   3.739 -2.7078 -0.5351  0.5920
   64EMI     N1 1198   3.937   6.242   2.280 -0.2870 -0.5524 -0.4604
   64EMI     C2 1199   4.070   6.209   2.277  0.5053 -0.3838  0.4883
   64EMI     N3 1200   4.089   6.074   2.300  0.4382  0.5175  0.2566
   64EMI     C4 1201   3.959   6.023   2.303 -0.3874  0.5521 -0.4912
   64EMI     C5 1202   3.871   6.122   2.299  0.2690 -0.3827 -0.6578
   64EMI     H2 1203   4.149   6.286   2.285  0.9051 -1.5589 -0.0408
   64EMI     H4 1204   3.949   5.923   2.328 -1.7166 -0.2299 -2.0756
   64EMI     H5 1205   3.763   6.102   2.307  2.6697 -1.8331  1.2977
   64EMI    C1' 1206   4.202   6.001   2.364 -0.3712 -0.7047  0.8499
   64EMI    H1' 1207   4.230   5.925   2.287  0.8105 -0.3832 -1.4537
   64EMI    H1' 1208   4.288   6.069   2.378 -1.1052 -0.3315  0.5899
   64EMI    H1' 1209   4.180   5.952   2.464  0.9623  0.2623  1.0916
   64EMI    C1" 1210   3.869   6.373   2.289  0.4152  0.1415  0.2225
   64EMI    H1" 1211   3.928   6.447   2.333  0.4364  1.4565  2.7990
   64EMI    H1" 1212   3.779   6.357   2.345 -0.6871 -1.1158  2.3279
   64EMI    C2" 1213   3.847   6.424   2.145  0.0954 -0.3466 -0.2280
   64EMI    H2" 1214   3.781   6.353   2.094 -2.7206  0.1691  3.8865
   64EMI    H2" 1215   3.791   6.520   2.150 -0.4881  2.4594  1.0225
   64EMI    H2" 1216   3.941   6.428   2.099  0.6128 -1.8339  0.4406
   65EMI     N1 1217   3.650   0.541   5.848 -0.0824 -0.1659 -0.1768
   65EMI     C2 1218   3.643   0.669   5.883  0.2908  0.4179 -0.2676
   65EMI     N3 1219   3.570   0.675   5.995  0.5883 -0.1010 -1.0790
   65EMI     C4 1220   3.545   0.545   6.032  0.1380 -0.2789 -0.5637
   65EMI     C5 1221   3.587   0.463   5.935  0.1402  0.2784 -0.1822
   65EMI     H2 1222   3.677   0.743   5.823 -2.3940 -1.0193  1.7934
   65EMI     H4 1223   3.492   0.511   6.119  2.0832  0.5961  3.4342
   65EMI     H5 1224   3.574   0.355   5.922 -0.7102 -0.0855 -0.7695
   65EMI    C1' 1225   3.504   0.784   6.069  1.1834  0.1363  0.4475
   65EMI    H1' 1226   3.442   0.842   5.995  0.5975  0.3533 -0.7806
   65EMI    H1' 1227   3.435   0.752   6.159 -1.6748  0.0498  2.8565
   65EMI    H1' 1228   3.576   0.854   6.112  1.6387  0.9775  0.6115
   65EMI    C1" 1229   3.716   0.480   5.731  0.1573  0.0782 -0.5898
   65EMI    H1" 1230   3.737   0.561   5.662 -0.8953 -0.4466  0.2592
   65EMI    H1" 1231   3.665   0.392   5.687  0.4579 -1.1983  1.2037
   65EMI    C2" 1232   3.853   0.439   5.774 -0.4411  0.5027 -0.0168
   65EMI    H2" 1233   3.921   0.498   5.836 -0.9338 -0.9308 -0.2111
   65EMI    H2" 1234   3.845   0.350   5.833  0.6496  1.8238 -1.3682
   65EMI    H2" 1235   3.906   0.403   5.686  0.3439 -0.5110 -2.2181
   66EMI     N1 1236   4.637   5.184   2.898  0.2954 -0.1202 -0.0166
   66EMI     C2 1237   4.568   5.235   2.795  0.0827 -0.0474  0.0928
   66EMI     N3 1238   4.548   5.367   2.808 -0.7180  0.4280 -0.2801
   66EMI     C4 1239   4.599   5.399   2.930 -0.2779  0.5122 -0.4553
   66EMI     C5 1240   4.656   5.289   2.985  0.1957  1.0015 -1.1248
   66EMI     H2 1241   4.519   5.178   2.711 -0.3023 -0.0758  2.9781
   66EMI     H4 1242   4.590   5.499   2.976 -0.3289  0.7941  0.8448
   66EMI     H5 1243   4.694   5.285   3.085 -0.4670 -0.9196 -0.9256
   66EMI    C1' 1244   4.485   5.463   2.716  0.3117 -0.5644 -0.1028
   66EMI    H1' 1245   4.403   5.411   2.670  1.3250 -2.3615  0.1797
   66EMI    H1' 1246   4.442   5.544   2.778 -1.5120 -0.8632  1.3667
   66EMI    H1' 1247   4.556   5.485   2.637 -1.9957 -2.0970  0.3059
   66EMI    C1" 1248   4.672   5.043   2.923  0.5950  0.7067 -0.3576
   66EMI    H1" 1249   4.734   5.027   3.011  0.0089  3.3551  0.5838
   66EMI    H1" 1250   4.713   4.993   2.835  0.5609  0.1200 -1.9721
   66EMI    C2" 1251   4.544   4.971   2.962  0.0010 -0.2850 -0.2680
   66EMI    H2" 1252   4.514   5.011   3.064  1.6795 -1.4843  3.0954
   66EMI    H2" 1253   4.462   4.991   2.888 -1.7919  3.0168  2.7411
   66EMI    H2" 1254   4.573   4.864   2.968 -0.0819  0.6337 -0.3273
   67EMI     N1 1255   2.778   1.528   1.393 -0.0221 -0.2345 -0.6496
   67EMI     C2 1256   2.726   1.604   1.299 -0.0409 -0.5991 -0.1820
   67EMI     N3 1257   2.638   1.530   1.228 -0.4640 -0.2737 -0.5441
   67EMI     C4 1258   2.643   1.403   1.277 -0.0695  0.2189 -0.2542
   67EMI     C5 1259   2.730   1.400   1.378  0.8755  1.0941 -0.0308
   67EMI     H2 1260   2.750   1.708   1.276 -1.3572 -2.5569  0.3371
   67EMI     H4 1261   2.589   1.318   1.238 -1.5657  1.5918  0.0240
   67EMI     H5 1262   2.762   1.311   1.434 -0.0601 -2.3069 -1.5500
   67EMI    C1' 1263   2.555   1.573   1.114  0.2817 -0.0975  0.4720
   67EMI    H1' 1264   2.447   1.588   1.139  1.3250 -0.0491  0.6240
   67EMI    H1' 1265   2.587   1.674   1.074  0.8014 -0.0655  0.8419
   67EMI    H1' 1266   2.549   1.502   1.034  0.0871 -2.0193 -1.1006
   67EMI    C1" 1267   2.888   1.559   1.492  0.8658 -0.1338 -0.0920
   67EMI    H1" 1268   2.919   1.665   1.469  2.3121 -0.3936  1.6672
   67EMI    H1" 1269   2.972   1.493   1.474  0.0090 -1.8294 -1.7975
   67EMI    C2" 1270   2.827   1.558   1.633 -0.0835 -0.3020 -0.4793
   67EMI    H2" 1271   2.732   1.607   1.630  1.3001 -0.6148  0.7510
   67EMI    H2" 1272   2.808   1.457   1.665 -2.1270  0.4260  0.5790
   67EMI    H2" 1273   2.890   1.613   1.698 -0.8739  1.1523 -1.2221
   68EMI     N1 1274   0.420   2.946   1.656 -0.5138 -0.5820  0.1572
   68EMI     C2 1275   0.433   3.078   1.664  0.0309  0.1762  0.5115
   68EMI     N3 1276   0.317   3.139   1.634 -0.7264 -0.0021 -0.6033
   68EMI     C4 1277   0.229   3.042   1.596 -0.1195  0.0198 -0.4303
   68EMI     C5 1278   0.292   2.923   1.607 -1.3668 -0.0011  0.7773
   68EMI     H2 1279   0.516   3.132   1.713 -2.0424  0.8604  0.4850
   68EMI     H4 1280   0.125   3.058   1.556 -1.1449 -0.1842 -0.6480
   68EMI     H5 1281   0.256   2.821   1.599 -0.7301 -0.7400  0.1357
   68EMI    C1' 1282   0.281   3.280   1.638 -0.2484  0.5057  0.3827
   68EMI    H1' 1283   0.174   3.291   1.610  0.2966  1.5078  0.7791
   68EMI    H1' 1284   0.301   3.313   1.741 -0.5703  1.7113  0.3591
   68EMI    H1' 1285   0.347   3.329   1.563  1.1851 -1.8384  0.2674
   68EMI    C1" 1286   0.508   2.834   1.702 -0.3308  0.0992  0.5689
   68EMI    H1" 1287   0.456   2.740   1.670  0.9924  0.5529 -1.3017
   68EMI    H1" 1288   0.520   2.850   1.811 -2.7563 -0.7578 -0.9098
   68EMI    C2" 1289   0.643   2.844   1.620  0.4943  0.2252 -0.1609
   68EMI    H2" 1290   0.718   2.775   1.644 -2.1172  1.5095  1.3917
   68EMI    H2" 1291   0.618   2.843   1.511 -1.2832 -1.3788 -1.2855
   68EMI    H2" 1292   0.690   2.933   1.650  1.0178 -1.8328  1.2609
   69EMI     N1 1293   2.573   0.278   3.484  0.3558 -0.9866 -0.3953
   69EMI     C2 1294   2.471   0.373   3.480 -0.1907 -0.3526  0.2779
   69EMI     N3 1295   2.520   0.489   3.435  0.6291  0.0457  0.3293
   69EMI     C4 1296   2.653   0.469   3.404  0.4926 -0.0635 -0.3831
   69EMI     C5 1297   2.686   0.340   3.429  0.4857  0.0523 -0.0390
   69EMI     H2 1298   2.368   0.351   3.507 -2.4459  0.2425  2.1387
   69EMI     H4 1299   2.724   0.542   3.359  0.1525  1.0835  0.4041
   69EMI     H5 1300   2.780   0.299   3.394 -4.0260 -0.8158  1.0329
   69EMI    C1' 1301   2.458   0.626   3.424 -0.1159  0.4101  0.7976
   69EMI    H1' 1302   2.348   0.614   3.428 -1.3982  0.7047 -0.3153
   69EMI    H1' 1303   2.482   0.691   3.507 -0.3705 -0.3488 -1.0069
   69EMI    H1' 1304   2.494   0.674   3.329 -1.0041  1.2197 -1.3497
   69EMI    C1" 1305   2.573   0.136   3.503  0.0560  0.5288 -0.4873
   69EMI    H1" 1306   2.677   0.094   3.496  1.2126  0.4198 -2.5145
   69EMI    H1" 1307   2.512   0.093   3.423 -0.0238 -2.6795  0.0972
   69EMI    C2" 1308   2.507   0.082   3.630 -0.0073 -0.1196 -0.0379
   69EMI    H2" 1309   2.513  -0.026   3.631 -0.2437  1.3715  1.1288
   69EMI    H2" 1310   2.559   0.126   3.718 -0.0040  0.9596 -0.0186
   69EMI    H2" 1311   2.404   0.107   3.630  1.8144  0.3691  1.0352
   70EMI     N1 1312   1.981   3.501   3.455  0.1736 -0.3547 -0.0142
   70EMI     C2 1313   1.986   3.378   3.513  0.6545 -0.0058  0.6026
   70EMI     N3 1314   2.088   3.372   3.599  1.1472 -0.4284  0.0725
   70EMI     C4 1315   2.151   3.494   3.591  0.3860  0.5791 -0.2055
   70EMI     C5 1316   2.089   3.570   3.497 -0.5103  0.3602 -0.6833
   70EMI     H2 1317   1.908   3.303   3.497  0.2908 -1.2796 -5.1925
   70EMI     H4 1318   2.227   3.532   3.649 -2.9149  0.5852 -1.1525
   70EMI     H5 1319   2.123   3.663   3.462 -0.5627  2.9173 -1.2668
   70EMI    C1' 1320   2.115   3.268   3.694  0.0232  0.7021  0.1605
   70EMI    H1' 1321   2.052   3.276   3.776  0.3106 -2.3563 -0.3804
   70EMI    H1' 1322   2.109   3.178   3.645  0.7721 -0.4532  0.7301
   70EMI    H1' 1323   2.222   3.284   3.739  0.9609 -0.8936  0.7129
   70EMI    C1" 1324   1.900   3.570   3.346  0.3631 -0.0310  0.0728
   70EMI    H1" 1325   1.967   3.590   3.259  1.0034  3.5335  3.0368
   70EMI    H1" 1326   1.857   3.664   3.390  0.2124  0.8813 -1.6586
   70EMI    C2" 1327   1.789   3.486   3.286  0.2195 -0.9287 -0.1969
   70EMI    H2" 1328   1.706   3.471   3.348 -0.1427  0.1084  1.7278
   70EMI    H2" 1329   1.748   3.534   3.198 -0.3548  0.4323 -1.1446
   70EMI    H2" 1330   1.834   3.386   3.251  0.6878 -0.6290  0.9298
   71EMI     N1 1331   1.538   0.687   0.641  0.1141 -0.6439  0.0372
   71EMI     C2 1332   1.405   0.671   0.624  0.3718 -0.4568 -0.4219
   71EMI     N3 1333   1.373   0.540   0.607  0.2437  0.3707  0.0069
   71EMI     C4 1334   1.491   0.477   0.586  0.2441 -0.0962 -0.5405
   71EMI     C5 1335   1.591   0.558   0.613 -0.0914 -0.5317 -0.0851
   71EMI     H2 1336   1.339   0.750   0.640  0.7664 -2.0378  0.8778
   71EMI     H4 1337   1.504   0.376   0.561 -1.3318  1.2847  1.3183
   71EMI     H5 1338   1.697   0.548   0.611  0.4276  1.7784  0.9618
   71EMI    C1' 1339   1.249   0.473   0.607  0.4646 -0.1963  1.3071
   71EMI    H1' 1340   1.265   0.370   0.583  0.2466 -0.2074  1.0348
   71EMI    H1' 1341   1.202   0.477   0.708 -2.7516 -1.5259 -1.9388
   71EMI    H1' 1342   1.193   0.520   0.526  2.2348 -1.4724 -2.0515
   71EMI    C1" 1343   1.619   0.809   0.657  0.2367  0.0037  0.7344
   71EMI    H1" 1344   1.711   0.785   0.700 -5.9575  2.9492 -2.0765
   71EMI    H1" 1345   1.572   0.878   0.721  1.1043 -1.3752  2.3078
   71EMI    C2" 1346   1.644   0.885   0.526 -0.5515 -0.2002  0.9317
   71EMI    H2" 1347   1.550   0.895   0.472  0.3955 -0.5155  0.6937
   71EMI    H2" 1348   1.693   0.978   0.550  1.5394 -0.2468 -1.5530
   71EMI    H2" 1349   1.706   0.819   0.460 -0.9967  1.2565 -0.7604
   72EMI     N1 1350   5.643   5.706   4.195  0.2595  0.7469 -0.1282
   72EMI     C2 1351   5.687   5.759   4.082  0.4092 -0.8595 -0.2627
   72EMI     N3 1352   5.820   5.774   4.092 -0.1237  0.0232 -0.6323
   72EMI     C4 1353   5.860   5.736   4.216  0.0709  0.0031  0.3396
   72EMI     C5 1354   5.747   5.696   4.281  0.1645 -0.2040  0.2761
   72EMI     H2 1355   5.629   5.777   3.988 -0.7089 -1.8571 -0.9254
   72EMI     H4 1356   5.955   5.736   4.257  0.3019 -1.3875 -0.9858
   72EMI     H5 1357   5.752   5.646   4.378  0.3942 -2.0647 -1.7553
   72EMI    C1' 1358   5.924   5.818   3.992  0.5330 -0.3329  0.6847
   72EMI    H1' 1359   5.985   5.730   3.960  3.8701 -2.3080  2.6117
   72EMI    H1' 1360   5.874   5.855   3.897  0.8336 -1.4565 -1.1630
   72EMI    H1' 1361   5.987   5.897   4.026 -0.3283  1.6806  1.6207
   72EMI    C1" 1362   5.504   5.667   4.238  0.3003 -0.5832 -0.2087
   72EMI    H1" 1363   5.429   5.713   4.178 -1.6263 -2.6233 -3.7512
   72EMI    H1" 1364   5.485   5.696   4.341  1.7297  0.3682  0.5034
   72EMI    C2" 1365   5.509   5.512   4.231 -0.8873 -0.1673 -0.5532
   72EMI    H2" 1366   5.561   5.467   4.317  0.1519 -2.5354 -1.2749
   72EMI    H2" 1367   5.410   5.484   4.237 -0.6407 -1.1735 -1.7461
   72EMI    H2" 1368   5.564   5.474   4.140  0.3525  0.4600 -0.8969
   73EMI     N1 1369   0.830   4.373   0.455 -0.6663 -0.2429  0.4442
   73EMI     C2 1370   0.955   4.417   0.456 -0.4059 -0.3459 -0.3086
   73EMI     N3 1371   0.964   4.545   0.484  0.0167 -0.5386 -0.0758
   73EMI     C4 1372   0.832   4.593   0.491 -0.5808 -0.3720  0.0725
   73EMI     C5 1373   0.750   4.487   0.470 -0.1076  0.0730  0.1569
   73EMI     H2 1374   1.042   4.355   0.441  0.5583 -2.5916  1.1379
   73EMI     H4 1375   0.811   4.693   0.520 -0.8543  1.0850  0.3608
   73EMI     H5 1376   0.642   4.491   0.481  0.3088  1.4156  1.3601
   73EMI    C1' 1377   1.082   4.634   0.485  0.0870  0.1794  0.3130
   73EMI    H1' 1378   1.163   4.577   0.438 -1.7871  3.4262  0.4819
   73EMI    H1' 1379   1.063   4.722   0.425  0.9047  1.2323 -3.7900
   73EMI    H1' 1380   1.112   4.660   0.590 -0.4392  2.3651 -2.2038
   73EMI    C1" 1381   0.771   4.236   0.438  0.0039 -0.7881 -0.1797
   73EMI    H1" 1382   0.682   4.222   0.504 -0.3142 -0.1805 -6.1207
   73EMI    H1" 1383   0.845   4.164   0.469  0.8754  0.4354  0.9613
   73EMI    C2" 1384   0.714   4.226   0.294  0.6384  0.0816 -0.2296
   73EMI    H2" 1385   0.688   4.125   0.272  0.4956  1.4671  2.4309
   73EMI    H2" 1386   0.615   4.277   0.304 -0.5681  0.3186  0.6555
   73EMI    H2" 1387   0.776   4.263   0.220 -1.2971 -2.9655  0.4161
   74EMI     N1 1388   0.109   4.059   0.519 -0.9536 -0.5054  0.2333
   74EMI     C2 1389   0.024   3.957   0.532 -0.3635  0.0688 -0.2457
   74EMI     N3 1390  -0.092   3.998   0.593  0.3137  0.5513  0.2646
   74EMI     C4 1391  -0.082   4.134   0.624 -0.2916  0.5613  0.4415
   74EMI     C5 1392   0.044   4.164   0.582  0.0445  0.1710 -0.1061
   74EMI     H2 1393   0.042   3.862   0.490 -0.7757 -0.0665 -2.0944
   74EMI     H4 1394  -0.147   4.201   0.682  1.4348  2.8694  0.7232
   74EMI     H5 1395   0.088   4.263   0.598  0.9085 -1.1084  0.2666
   74EMI    C1' 1396  -0.214   3.917   0.639  0.4303  0.2561  0.2857
   74EMI    H1' 1397  -0.302   3.982   0.636  1.8752 -1.0264  1.3737
   74EMI    H1' 1398  -0.222   3.828   0.575 -0.3875  0.4728 -0.2988
   74EMI    H1' 1399  -0.203   3.881   0.743  0.6972  2.8506 -1.4454
   74EMI    C1" 1400   0.250   4.066   0.475 -0.1761 -0.1671  0.3789
   74EMI    H1" 1401   0.297   3.980   0.526 -2.3232  0.5391 -1.4679
   74EMI    H1" 1402   0.292   4.164   0.510  0.9929  1.9012 -1.0896
   74EMI    C2" 1403   0.259   4.051   0.322 -0.2178 -0.4590 -0.2686
   74EMI    H2" 1404   0.179   4.110   0.292  1.4095 -2.7299  1.0582
   74EMI    H2" 1405   0.361   4.084   0.291  0.7357 -0.1809 -1.2668
   74EMI    H2" 1406   0.240   3.947   0.302  1.5557  1.1582  0.5328
   75EMI     N1 1407   1.589   4.102   3.993  0.4983 -0.1872  0.4416
   75EMI     C2 1408   1.574   3.970   4.002  0.1844 -0.3316 -0.5960
   75EMI     N3 1409   1.473   3.925   3.926  0.9351 -0.1731 -0.1625
   75EMI     C4 1410   1.405   4.035   3.880  0.0872  0.6379 -0.1076
   75EMI     C5 1411   1.477   4.143   3.921 -0.1090 -0.4674 -0.4784
   75EMI     H2 1412   1.648   3.914   4.056 -1.0152  0.7954  0.9246
   75EMI     H4 1413   1.313   4.035   3.823  1.6739 -0.5914  0.4100
   75EMI     H5 1414   1.448   4.244   3.903  1.9442 -3.1465  1.6227
   75EMI    C1' 1415   1.420   3.787   3.914 -0.6397 -0.1548  0.1618
   75EMI    H1' 1416   1.398   3.757   4.014 -0.5470  1.4763  2.0471
   75EMI    H1' 1417   1.329   3.784   3.852  3.1601  1.6661 -0.9709
   75EMI    H1' 1418   1.495   3.727   3.863  1.0949 -1.6042 -1.2012
   75EMI    C1" 1419   1.688   4.195   4.056  0.5048 -0.4749 -0.2023
   75EMI    H1" 1420   1.671   4.203   4.166 -1.2607 -0.0707  2.0421
   75EMI    H1" 1421   1.681   4.291   4.016  0.6625 -1.1077  0.9247
   75EMI    C2" 1422   1.830   4.137   4.037  0.3434  0.0215 -0.6441
   75EMI    H2" 1423   1.833   4.038   4.069  1.2816  2.7259  0.7469
   75EMI    H2" 1424   1.856   4.147   3.932 -0.8153 -0.8116  0.4893
   75EMI    H2" 1425   1.902   4.199   4.102 -0.1756  0.6649  0.0362
   76EMI     N1 1426   5.052   1.613   1.260 -0.1406 -0.2411 -0.0817
   76EMI     C2 1427   5.176   1.638   1.219  0.0085 -0.7765  0.0319
   76EMI     N3 1428   5.256   1.684   1.308 -0.1505  0.2308 -0.7972
   76EMI     C4 1429   5.177   1.706   1.416 -0.0840 -0.5214 -0.2567
   76EMI     C5 1430   5.050   1.658   1.392 -0.2549 -0.1737  0.4498
   76EMI     H2 1431   5.214   1.620   1.119  2.5754  0.4844 -1.0598
   76EMI     H4 1432   5.222   1.756   1.503 -0.1373  0.1044  2.2541
   76EMI     H5 1433   4.969   1.665   1.463  0.8192 -0.0896 -1.0719
   76EMI    C1' 1434   5.404   1.711   1.308  0.0201  0.2967  0.2072
   76EMI    H1' 1435   5.427   1.815   1.295  1.1659 -3.9074  2.9815
   76EMI    H1' 1436   5.450   1.687   1.400  0.5429  3.0797 -0.7548
   76EMI    H1' 1437   5.436   1.655   1.224 -3.3651  0.5658 -0.3162
   76EMI    C1" 1438   4.928   1.558   1.201  0.3471 -0.2175  0.0555
   76EMI    H1" 1439   4.896   1.612   1.111  0.4425 -0.5819  0.9902
   76EMI    H1" 1440   4.850   1.568   1.274  1.4487  0.1798  2.0935
   76EMI    C2" 1441   4.951   1.412   1.167  0.7766  0.2315  0.2020
   76EMI    H2" 1442   4.862   1.386   1.117 -1.1272  1.3181  0.9353
   76EMI    H2" 1443   5.038   1.394   1.106  2.9828  1.3875  0.2833
   76EMI    H2" 1444   4.958   1.358   1.260 -2.6124  0.3994  0.0054
   77EMI     N1 1445   0.819   0.055   5.744 -0.6582 -0.0971  0.7007
   77EMI     C2 1446   0.796   0.034   5.613 -0.0973 -0.3047  0.2021
   77EMI     N3 1447   0.737   0.142   5.564 -0.5186 -0.1322 -0.0667
   77EMI     C4 1448   0.709   0.224   5.674  0.0854  0.3686  0.0959
   77EMI     C5 1449   0.770   0.178   5.779 -0.5239  0.2976 -0.2561
   77EMI     H2 1450   0.815  -0.052   5.555  0.2761 -0.7224  0.1386
   77EMI     H4 1451   0.657   0.323   5.670 -3.5397 -0.0096 -1.7806
   77EMI     H5 1452   0.784   0.221   5.877  1.9316 -1.7060 -1.1212
   77EMI    C1' 1453   0.694   0.165   5.425  0.3156  0.4227  0.2916
   77EMI    H1' 1454   0.782   0.200   5.374 -0.1304  0.2768 -2.7229
   77EMI    H1' 1455   0.670   0.071   5.383 -0.3374 -0.5594 -0.1674
   77EMI    H1' 1456   0.617   0.241   5.417 -1.2686  0.1969  0.9568
   77EMI    C1" 1457   0.887  -0.035   5.836  0.5166 -0.1648  0.2031
   77EMI    H1" 1458   0.832  -0.125   5.849 -1.5259  1.1239 -4.3119
   77EMI    H1" 1459   0.884   0.022   5.930  0.2256  2.5157  1.1231
   77EMI    C2" 1460   1.039  -0.051   5.801 -0.3608 -0.5158  0.6764
   77EMI    H2" 1461   1.069  -0.147   5.761 -2.1748  0.0479 -0.6298
   77EMI    H2" 1462   1.065   0.026   5.728 -0.6895 -0.9170 -1.8430
   77EMI    H2" 1463   1.094  -0.032   5.899  0.9877 -1.0342  0.3390
   78EMI     N1 1464   0.413   2.287   1.238  0.1277 -0.0197 -0.3917
   78EMI     C2 1465   0.488   2.300   1.130 -0.3525  0.0594  0.3170
   78EMI     N3 1466   0.453   2.214   1.039 -0.1511  0.1337 -0.5764
   78EMI     C4 1467   0.352   2.143   1.093  0.4435 -0.0488 -0.1187
   78EMI     C5 1468   0.326   2.183   1.216  0.1487  0.6583  0.0343
   78EMI     H2 1469   0.575   2.364   1.141 -0.4100  0.6100  0.9785
   78EMI     H4 1470   0.298   2.069   1.038  1.0115 -0.6466 -0.0043
   78EMI     H5 1471   0.241   2.142   1.268 -2.6397  0.6526  1.2233
   78EMI    C1' 1472   0.526   2.178   0.917 -0.4399 -1.2586 -0.3479
   78EMI    H1' 1473   0.585   2.093   0.931 -0.3310  1.9162 -2.9439
   78EMI    H1' 1474   0.459   2.166   0.830 -2.4723  0.2296  1.2600
   78EMI    H1' 1475   0.595   2.263   0.893  0.2679 -1.6834  1.6591
   78EMI    C1" 1476   0.412   2.350   1.371 -0.5778  0.4028 -0.0624
   78EMI    H1" 1477   0.494   2.300   1.428  2.8054  0.4632  1.7260
   78EMI    H1" 1478   0.323   2.331   1.431  1.3229 -1.8879 -0.8912
   78EMI    C2" 1479   0.437   2.499   1.371  0.2220 -0.3048 -0.4541
   78EMI    H2" 1480   0.342   2.543   1.339 -2.6673  2.5299  1.3345
   78EMI    H2" 1481   0.437   2.527   1.473  0.8786  1.7705  2.2475
   78EMI    H2" 1482   0.521   2.520   1.305  4.3109 -1.6489 -1.3147
   79EMI     N1 1483   3.923   5.345   0.801 -0.1103 -0.6227 -0.0614
   79EMI     C2 1484   4.054   5.334   0.788 -0.0414  0.0909  0.5232
   79EMI     N3 1485   4.102   5.219   0.844 -0.0649 -0.2861 -0.6536
   79EMI     C4 1486   3.992   5.157   0.907  0.2524  0.2761 -0.0103
   79EMI     C5 1487   3.882   5.231   0.871 -0.0923  0.6000  0.1815
   79EMI     H2 1488   4.108   5.414   0.741 -0.3939 -1.7120 -1.7673
   79EMI     H4 1489   4.001   5.068   0.968  0.8157  0.5674 -1.2760
   79EMI     H5 1490   3.782   5.207   0.906  1.9595  0.1070 -0.4644
   79EMI    C1' 1491   4.230   5.156   0.849 -0.3412 -0.0010 -0.4308
   79EMI    H1' 1492   4.309   5.227   0.871  2.7588  1.8571  0.6144
   79EMI    H1' 1493   4.222   5.077   0.914 -0.8340  1.7261  0.0025
   79EMI    H1' 1494   4.249   5.116   0.753 -1.6880 -0.0685  1.9919
   79EMI    C1" 1495   3.823   5.442   0.748  0.4761  0.8142  0.0869
   79EMI    H1" 1496   3.840   5.541   0.786  0.1055  2.5550  0.2333
   79EMI    H1" 1497   3.721   5.413   0.781 -0.3275  1.7489 -2.3128
   79EMI    C2" 1498   3.814   5.431   0.594  0.1177 -0.6036  0.4855
   79EMI    H2" 1499   3.725   5.481   0.560  0.5873 -0.8068  1.8848
   79EMI    H2" 1500   3.902   5.472   0.544  0.7405 -2.2692 -0.6308
   79EMI    H2" 1501   3.799   5.325   0.572  3.2500 -0.2795 -2.1108
   80EMI     N1 1502   0.668   1.483   2.139  0.2575  0.0276  0.1868
   80EMI     C2 1503   0.745   1.439   2.042 -0.1330 -0.2427  0.2665
   80EMI     N3 1504   0.796   1.541   1.972 -0.1883  0.1895 -0.8388
   80EMI     C4 1505   0.751   1.658   2.029 -0.1055 -0.2540  0.1806
   80EMI     C5 1506   0.672   1.626   2.131 -0.0855 -0.1465  0.5079
   80EMI     H2 1507   0.763   1.331   2.028  0.7541  0.3984  2.2023
   80EMI     H4 1508   0.780   1.764   1.998 -0.7901  2.5167  0.5117
   80EMI     H5 1509   0.611   1.688   2.196  0.5211  1.5292 -1.8210
   80EMI    C1' 1510   0.891   1.544   1.862  0.2104  0.7347  0.7862
   80EMI    H1' 1511   0.853   1.485   1.780  0.0926 -0.0024  0.9985
   80EMI    H1' 1512   0.910   1.647   1.829 -0.1463  2.0333  0.7697
   80EMI    H1' 1513   0.980   1.499   1.902 -0.0295  1.9424 -1.6075
   80EMI    C1" 1514   0.579   1.414   2.242  0.0444 -1.0039 -0.1746
   80EMI    H1" 1515   0.476   1.399   2.203 -1.9311  0.5865  1.8843
   80EMI    H1" 1516   0.569   1.481   2.327 -0.7732  0.7686  1.4261
   80EMI    C2" 1517   0.647   1.282   2.277  0.4011  0.1151 -0.4496
   80EMI    H2" 1518   0.615   1.265   2.384 -2.9498 -0.4054 -0.6779
   80EMI    H2" 1519   0.606   1.201   2.208 -0.1132 -4.9877 -0.2850
   80EMI    H2" 1520   0.754   1.295   2.268 -0.7104  0.7060  1.7274
   81EMI     N1 1521   0.059   4.835   3.716 -0.8149 -0.0748  0.0229
   81EMI     C2 1522   0.193   4.834   3.717 -0.0304  0.7660 -0.1504
   81EMI     N3 1523   0.233   4.795   3.839  0.2383 -0.3412  0.3508
   81EMI     C4 1524   0.121   4.757   3.907  1.1357  0.1280 -0.1711
   81EMI     C5 1525   0.011   4.784   3.836  0.2067 -0.2530  0.1603
   81EMI     H2 1526   0.254   4.871   3.639 -0.3432 -2.7088  1.3343
   81EMI     H4 1527   0.122   4.710   4.009 -0.3222 -0.7870  0.4201
   81EMI     H5 1528  -0.091   4.765   3.868  0.3069  0.4266 -0.1040
   81EMI    C1' 1529   0.367   4.826   3.900 -0.0055  0.3087  0.0020
   81EMI    H1' 1530   0.378   4.776   3.998  1.2849 -0.7029  0.0592
   81EMI    H1' 1531   0.447   4.799   3.829 -1.1675 -0.4915 -0.1430
   81EMI    H1' 1532   0.369   4.935   3.913 -0.2157 -1.0446 -0.7006
   81EMI    C1" 1533  -0.036   4.890   3.613 -0.4531  0.9081  0.2020
   81EMI    H1" 1534  -0.139   4.858   3.645  1.5667 -0.0452 -1.7600
   81EMI    H1" 1535  -0.005   4.850   3.513 -0.2106  0.8864  1.5466
   81EMI    C2" 1536  -0.021   5.044   3.613  0.4439 -0.2106  0.0425
   81EMI    H2" 1537  -0.119   5.086   3.580 -3.6410 -2.9044  1.3105
   81EMI    H2" 1538  -0.004   5.077   3.717  0.3029  2.1876  0.2736
   81EMI    H2" 1539   0.059   5.075   3.549 -0.6102  0.8022  0.8134
   82EMI     N1 1540   2.944   6.232   5.971 -0.0361 -0.4202  0.2104
   82EMI     C2 1541   3.047   6.278   5.900 -0.3723  0.5543  0.8482
   82EMI     N3 1542   3.163   6.258   5.964 -0.4726  0.2058  0.1176
   82EMI     C4 1543   3.125   6.205   6.084  0.3831 -0.0679  0.5175
   82EMI     C5 1544   2.995   6.180   6.086 -0.0860 -0.3962  0.6886
   82EMI     H2 1545   3.041   6.321   5.801 -0.4303  1.1545 -0.7179
   82EMI     H4 1546   3.188   6.182   6.167 -0.6533  2.5270 -0.1203
   82EMI     H5 1547   2.945   6.137   6.164 -1.0779  1.7156  1.1076
   82EMI    C1' 1548   3.295   6.252   5.910 -0.1839 -0.1757 -0.4820
   82EMI    H1' 1549   3.357   6.334   5.960 -0.8981  0.2834  0.9409
   82EMI    H1' 1550   3.331   6.154   5.931  1.6313  0.4271  1.2788
   82EMI    H1' 1551   3.295   6.279   5.803  0.5260  0.6707  1.4776
   82EMI    C1" 1552   2.801   6.229   5.940 -0.3479  0.1211 -0.5932
   82EMI    H1" 1553   2.752   6.323   5.924 -0.7474 -4.5332 -0.3116
   82EMI    H1" 1554   2.746   6.185   6.024 -0.1660  1.4912  0.7393
   82EMI    C2" 1555   2.753   6.153   5.820 -0.0411  0.0446  0.6945
   82EMI    H2" 1556   2.793   6.217   5.739  0.7131 -0.8906  1.0314
   82EMI    H2" 1557   2.792   6.049   5.818 -1.8606 -0.1437 -0.4495
   82EMI    H2" 1558   2.642   6.148   5.813  1.3603  0.2743  1.1303
   83EMI     N1 1559   5.455   1.340   1.160 -0.7790 -0.2407  0.2085
   83EMI     C2 1560   5.489   1.324   1.034 -0.2304  0.1203  0.6857
   83EMI     N3 1561   5.613   1.377   1.011 -0.4860 -0.0170  0.1989
   83EMI     C4 1562   5.655   1.420   1.132  0.4244 -0.0267 -0.3260
   83EMI     C5 1563   5.559   1.401   1.228 -0.1370  0.4033 -0.7252
   83EMI     H2 1564   5.415   1.316   0.954  0.1134 -1.3318  2.1920
   83EMI     H4 1565   5.752   1.466   1.148  2.0319 -1.8262  3.2149
   83EMI     H5 1566   5.561   1.442   1.336 -2.8095  2.9837 -0.0974
   83EMI    C1' 1567   5.694   1.400   0.894  0.2659 -0.5734 -0.4633
   83EMI    H1' 1568   5.757   1.484   0.913  1.0749 -1.7487  0.0151
   83EMI    H1' 1569   5.758   1.309   0.870  0.2246  1.3220  2.3188
   83EMI    H1' 1570   5.635   1.430   0.807  0.4706 -1.1105 -2.2037
   83EMI    C1" 1571   5.319   1.320   1.222  0.0508  0.1425  0.7750
   83EMI    H1" 1572   5.248   1.399   1.188 -2.6962  0.0442  2.8612
   83EMI    H1" 1573   5.325   1.325   1.334  0.4012  0.4276  2.0651
   83EMI    C2" 1574   5.270   1.178   1.179 -1.4809  0.8774  0.8300
   83EMI    H2" 1575   5.321   1.094   1.224 -0.2332 -0.4035  1.6520
   83EMI    H2" 1576   5.161   1.165   1.193  2.0182 -1.3726 -1.5225
   83EMI    H2" 1577   5.282   1.182   1.073  0.9536  1.0516 -0.8135
   84EMI     N1 1578   3.004   3.794   2.099 -0.9756 -0.2530  0.0596
   84EMI     C2 1579   3.067   3.758   1.989 -0.1229 -1.1727 -1.1135
   84EMI     N3 1580   3.021   3.829   1.886  0.6995 -0.0808  0.7889
   84EMI     C4 1581   2.928   3.924   1.934 -0.0102  0.2744 -0.1394
   84EMI     C5 1582   2.915   3.890   2.062  0.0294 -0.3022 -0.3200
   84EMI     H2 1583   3.142   3.689   1.986 -2.6778  1.5805 -0.4017
   84EMI     H4 1584   2.866   3.992   1.886  2.1253 -0.2289  1.8458
   84EMI     H5 1585   2.838   3.935   2.132 -0.9076  0.6823  0.1396
   84EMI    C1' 1586   3.060   3.805   1.745 -0.2462 -0.0685 -0.3892
   84EMI    H1' 1587   3.120   3.886   1.709  1.9948  2.6292  0.4462
   84EMI    H1' 1588   3.126   3.717   1.749  1.7547  1.9407  3.0440
   84EMI    H1' 1589   2.981   3.785   1.680  0.8698  0.9316  0.0848
   84EMI    C1" 1590   3.019   3.746   2.235  1.0689 -0.7007 -0.2107
   84EMI    H1" 1591   2.922   3.707   2.268  0.4137  0.8874  0.3596
   84EMI    H1" 1592   3.045   3.830   2.307 -1.1813 -1.1817 -0.0027
   84EMI    C2" 1593   3.128   3.646   2.246  0.2645 -0.1962  0.5794
   84EMI    H2" 1594   3.099   3.559   2.187 -4.1669  0.4783  2.7875
   84EMI    H2" 1595   3.217   3.692   2.210  1.1125 -2.0522 -0.0984
   84EMI    H2" 1596   3.150   3.611   2.344  0.5507  1.6070  0.0701
   85EMI     N1 1597   3.111   4.395   1.636 -0.2365  0.2048  0.2452
   85EMI     C2 1598   3.206   4.463   1.570  0.3996 -0.2111 -0.5406
   85EMI     N3 1599   3.154   4.578   1.521  0.4921 -0.2602  0.2903
   85EMI     C4 1600   3.018   4.576   1.548 -0.7296 -0.2687  0.8675
   85EMI     C5 1601   2.998   4.466   1.625  0.1188 -0.2022  0.8779
   85EMI     H2 1602   3.304   4.421   1.564 -0.0929  3.2903  1.7243
   85EMI     H4 1603   2.942   4.651   1.514 -1.3205  0.4558  1.6001
   85EMI     H5 1604   2.909   4.427   1.670 -0.6951  2.6667  0.7029
   85EMI    C1' 1605   3.213   4.698   1.460 -0.3369 -0.7770 -0.5349
   85EMI    H1' 1606   3.318   4.687   1.468  1.5592 -1.2166 -2.3309
   85EMI    H1' 1607   3.185   4.708   1.351  0.4822  1.0292 -0.8709
   85EMI    H1' 1608   3.179   4.792   1.510  2.4542 -1.5388 -0.3861
   85EMI    C1" 1609   3.121   4.263   1.702 -0.2375  0.5672 -0.1900
   85EMI    H1" 1610   3.222   4.231   1.690 -2.7526  1.4884 -0.3444
   85EMI    H1" 1611   3.071   4.192   1.632  1.8561  2.0756  2.7695
   85EMI    C2" 1612   3.067   4.252   1.848  0.2290  1.1606 -0.0707
   85EMI    H2" 1613   3.095   4.158   1.887  0.9331  1.5287  0.8307
   85EMI    H2" 1614   3.098   4.339   1.908  3.0946 -0.4324 -2.0357
   85EMI    H2" 1615   2.961   4.254   1.845 -0.3490  0.7130 -0.2971
   86EMI     N1 1616   5.640   1.978   2.401 -0.0701  0.5196 -0.2188
   86EMI     C2 1617   5.655   1.937   2.529  0.1834 -0.3778  1.0854
   86EMI     N3 1618   5.662   1.802   2.544 -0.1515  0.1311  0.1258
   86EMI     C4 1619   5.647   1.753   2.418  0.4874  0.0799 -0.2110
   86EMI     C5 1620   5.637   1.857   2.330 -0.1609  0.4017  0.1519
   86EMI     H2 1621   5.663   2.007   2.612  0.7431  1.6869 -0.4872
   86EMI     H4 1622   5.633   1.653   2.380 -1.3929 -1.0308  0.0278
   86EMI     H5 1623   5.626   1.861   2.216  0.3107 -0.4987 -4.4728
   86EMI    C1' 1624   5.662   1.714   2.659  0.4140 -0.6632 -0.1332
   86EMI    H1' 1625   5.745   1.737   2.723 -0.6635  0.9977 -1.1512
   86EMI    H1' 1626   5.572   1.710   2.713 -1.2393 -1.4807  1.4494
   86EMI    H1' 1627   5.680   1.613   2.625  0.5075  0.1775 -1.3899
   86EMI    C1" 1628   5.633   2.116   2.347 -0.0136 -0.1522  0.3612
   86EMI    H1" 1629   5.557   2.150   2.420 -0.7945  1.4497 -0.5969
   86EMI    H1" 1630   5.600   2.114   2.241  1.9931 -0.4116  0.0189
   86EMI    C2" 1631   5.767   2.193   2.368  0.3844 -0.1723  0.0122
   86EMI    H2" 1632   5.740   2.299   2.347  2.4294 -0.0168 -1.7514
   86EMI    H2" 1633   5.791   2.182   2.476  1.0690  1.1832 -0.2190
   86EMI    H2" 1634   5.839   2.166   2.295 -3.5719 -1.9625  1.3574
   87EMI     N1 1635   1.523   1.253   3.491 -0.0490  0.2712  0.2666
   87EMI     C2 1636   1.602   1.194   3.398 -0.2604  0.3950 -0.0469
   87EMI     N3 1637   1.634   1.282   3.303 -0.2509  0.5711 -0.3791
   87EMI     C4 1638   1.572   1.398   3.339  0.4132  0.6057  0.2425
   87EMI     C5 1639   1.507   1.383   3.458  0.1058 -0.4949 -0.1190
   87EMI     H2 1640   1.640   1.098   3.418 -2.9849  0.5441 -1.1025
   87EMI     H4 1641   1.587   1.479   3.277 -0.3717 -1.1627  2.0810
   87EMI     H5 1642   1.461   1.463   3.512  3.4369  1.9284 -2.8147
   87EMI    C1' 1643   1.741   1.275   3.204  0.2079 -0.5233 -0.0399
   87EMI    H1' 1644   1.802   1.366   3.193  1.9154 -1.0566 -1.0597
   87EMI    H1' 1645   1.809   1.195   3.238 -4.5113 -0.0284  2.0862
   87EMI    H1' 1646   1.698   1.239   3.113  0.1035  0.9191  0.6412
   87EMI    C1" 1647   1.477   1.187   3.619 -0.3383 -0.4441 -0.8782
   87EMI    H1" 1648   1.370   1.170   3.606 -0.5367 -0.3722 -2.0001
   87EMI    H1" 1649   1.503   1.256   3.703  0.7066  0.1405  1.3642
   87EMI    C2" 1650   1.547   1.054   3.645 -0.6393  0.3687 -0.3397
   87EMI    H2" 1651   1.508   0.965   3.593  1.8544  0.9811 -1.3083
   87EMI    H2" 1652   1.653   1.069   3.630 -1.9588  0.3040 -0.3213
   87EMI    H2" 1653   1.529   1.043   3.753 -0.8443 -0.7957  1.9853
   88EMI     N1 1654   2.348   5.301   2.379  0.7439  0.4272 -0.0888
   88EMI     C2 1655   2.438   5.390   2.410  0.4245 -0.0006  0.6418
   88EMI     N3 1656   2.458   5.395   2.542 -0.2494 -0.2992 -0.6229
   88EMI     C4 1657   2.384   5.295   2.599  0.5163 -0.3312 -0.4861
   88EMI     C5 1658   2.318   5.234   2.497  0.8469  0.1932  0.2392
   88EMI     H2 1659   2.485   5.460   2.344  0.6155 -0.3966 -2.0216
   88EMI     H4 1660   2.383   5.275   2.705  1.4968  1.5034  0.5706
   88EMI     H5 1661   2.255   5.151   2.508  0.0599 -0.1989  2.0626
   88EMI    C1' 1662   2.540   5.489   2.623  0.1018  0.0969 -0.2850
   88EMI    H1' 1663   2.487   5.589   2.637 -2.4692  0.0422  0.0111
   88EMI    H1' 1664   2.544   5.453   2.730  1.6949 -2.1887 -1.7627
   88EMI    H1' 1665   2.641   5.489   2.586 -2.6979 -0.1859 -0.4417
   88EMI    C1" 1666   2.297   5.260   2.251  0.2508  0.7623  0.0595
   88EMI    H1" 1667   2.334   5.161   2.233 -2.7927  1.5963  0.4951
   88EMI    H1" 1668   2.330   5.322   2.169 -0.3442 -1.0340  0.0580
   88EMI    C2" 1669   2.141   5.260   2.258  0.3013  0.4494  0.3863
   88EMI    H2" 1670   2.113   5.364   2.285  1.4725  1.1835 -1.3155
   88EMI    H2" 1671   2.102   5.237   2.161 -0.1136 -1.4112 -0.4876
   88EMI    H2" 1672   2.095   5.189   2.326  0.9618  2.4555  1.1168
   89EMI     N1 1673   5.354   5.029   0.297 -0.0367  0.0211 -0.7032
   89EMI     C2 1674   5.346   5.097   0.186  0.1284  0.4364  0.6164
   89EMI     N3 1675   5.449   5.060   0.102  0.0441  0.1700 -0.1753
   89EMI     C4 1676   5.510   4.954   0.164 -0.4506  0.2474  0.7824
   89EMI     C5 1677   5.457   4.936   0.281  0.1685 -0.5684 -0.1879
   89EMI     H2 1678   5.266   5.162   0.165  0.2218  0.0244  1.2910
   89EMI     H4 1679   5.593   4.899   0.118  0.7317 -0.4545 -2.5466
   89EMI     H5 1680   5.485   4.857   0.342 -2.2082  0.0504  1.6534
   89EMI    C1' 1681   5.485   5.102  -0.033  0.3014  0.2499  0.0025
   89EMI    H1' 1682   5.460   5.213  -0.051  0.3033 -2.2925 -0.0675
   89EMI    H1' 1683   5.594   5.098  -0.045  1.0139 -0.6437 -0.8399
   89EMI    H1' 1684   5.452   5.040  -0.112  1.6578 -0.6446 -3.0373
   89EMI    C1" 1685   5.255   5.002   0.404 -0.1278  0.0680 -0.1145
   89EMI    H1" 1686   5.245   4.890   0.415 -1.2872  0.5661 -0.6389
   89EMI    H1" 1687   5.151   5.040   0.385 -1.2712 -0.9924 -0.2260
   89EMI    C2" 1688   5.314   5.061   0.534 -0.1604 -0.6186 -0.1702
   89EMI    H2" 1689   5.335   5.164   0.526  1.1645 -1.2530  0.1257
   89EMI    H2" 1690   5.253   5.036   0.618  0.0175  0.3390 -0.4890
   89EMI    H2" 1691   5.415   5.010   0.555  0.5648 -2.2818  0.5121
   90EMI     N1 1692   1.985   1.668   1.528  0.2651  0.5542 -0.0487
   90EMI     C2 1693   1.912   1.770   1.580 -0.8016 -0.2457 -0.0277
   90EMI     N3 1694   1.788   1.762   1.536 -0.0960  0.0873  0.1533
   90EMI     C4 1695   1.787   1.660   1.442 -0.9495 -0.3886 -0.4115
   90EMI     C5 1696   1.905   1.598   1.442  0.3194  0.4619  0.9689
   90EMI     H2 1697   1.952   1.841   1.656  0.1175  0.2814  2.5273
   90EMI     H4 1698   1.704   1.633   1.385  0.5891 -2.3038 -2.0706
   90EMI     H5 1699   1.945   1.519   1.374  1.1905 -2.2756 -0.1824
   90EMI    C1' 1700   1.676   1.847   1.574  0.2896  0.0149 -0.8946
   90EMI    H1' 1701   1.726   1.932   1.620 -1.2466  1.0375 -1.8370
   90EMI    H1' 1702   1.622   1.883   1.484 -3.5486  0.8313 -0.1934
   90EMI    H1' 1703   1.612   1.796   1.643 -1.7537  0.5214  0.5045
   90EMI    C1" 1704   2.128   1.641   1.546  0.2195 -0.6815 -0.5674
   90EMI    H1" 1705   2.140   1.533   1.551  0.0318  1.2359 -3.7296
   90EMI    H1" 1706   2.150   1.687   1.636 -2.8818 -1.2999 -0.9782
   90EMI    C2" 1707   2.200   1.724   1.439  0.0581 -0.0451  0.0963
   90EMI    H2" 1708   2.174   1.675   1.345  1.5182 -0.8051 -2.0948
   90EMI    H2" 1709   2.175   1.836   1.437  0.8478  2.1633 -1.2062
   90EMI    H2" 1710   2.312   1.708   1.445  0.5108  0.1218  1.8122
   91EMI     N1 1711   5.888   4.498   2.999 -0.2249 -0.0747  0.2760
   91EMI     C2 1712   5.967   4.579   3.069  0.4034  0.1018  0.2001
   91EMI     N3 1713   6.082   4.519   3.089  0.2544 -0.1531 -0.2791
   91EMI     C4 1714   6.080   4.404   3.017 -0.6330 -0.6332  0.0586
   91EMI     C5 1715   5.960   4.384   2.965  0.1708 -0.3843 -0.1373
   91EMI     H2 1716   5.923   4.674   3.102 -0.0057 -0.0980  4.4086
   91EMI     H4 1717   6.164   4.338   3.004  1.1183 -0.3580  0.0942
   91EMI     H5 1718   5.918   4.309   2.901  0.2647  2.2962 -0.7223
   91EMI    C1' 1719   6.200   4.566   3.169 -0.0519 -0.0149  0.1477
   91EMI    H1' 1720   6.287   4.598   3.096  2.4558 -0.8008  0.6079
   91EMI    H1' 1721   6.169   4.650   3.235 -0.1838  1.2663  2.0825
   91EMI    H1' 1722   6.234   4.483   3.228 -0.4681  0.2346  0.1446
   91EMI    C1" 1723   5.754   4.521   2.958 -0.1514  0.0099 -0.2643
   91EMI    H1" 1724   5.739   4.462   2.868  0.5025 -0.7287 -0.2450
   91EMI    H1" 1725   5.729   4.626   2.945  2.1611 -1.1451  1.6906
   91EMI    C2" 1726   5.653   4.462   3.057 -0.0603  0.0854 -0.2672
   91EMI    H2" 1727   5.558   4.491   3.032  1.3202  1.0439  0.5911
   91EMI    H2" 1728   5.663   4.355   3.069 -2.2196  0.3134  0.1021
   91EMI    H2" 1729   5.669   4.504   3.154  0.6432 -2.2123 -1.1607
   92EMI     N1 1730   2.618   5.961   3.158  0.5592  0.2267 -0.8793
   92EMI     C2 1731   2.696   5.854   3.169  0.5481 -0.9779  0.5931
   92EMI     N3 1732   2.801   5.883   3.258  1.0207 -0.1485  0.0219
   92EMI     C4 1733   2.786   6.020   3.288  0.1414 -0.1729  0.0636
   92EMI     C5 1734   2.676   6.063   3.223 -0.2686  0.2501  0.6069
   92EMI     H2 1735   2.673   5.757   3.139 -0.6917  1.0345 -0.5959
   92EMI     H4 1736   2.854   6.077   3.353 -0.2205 -1.1927  1.7178
   92EMI     H5 1737   2.642   6.164   3.223 -1.0810  0.5060 -1.0457
   92EMI    C1' 1738   2.905   5.800   3.309 -0.0179 -0.3702 -0.4903
   92EMI    H1' 1739   2.949   5.838   3.395 -0.5862  0.6700  0.4269
   92EMI    H1' 1740   2.871   5.693   3.331 -0.6943 -2.7920  0.7466
   92EMI    H1' 1741   2.987   5.786   3.234 -1.4178 -0.8369  3.2551
   92EMI    C1" 1742   2.484   5.967   3.092 -0.7593 -0.1772  0.5608
   92EMI    H1" 1743   2.419   6.045   3.146 -2.4593  2.7901  2.2706
   92EMI    H1" 1744   2.442   5.874   3.091  1.8301  0.8065 -2.5918
   92EMI    C2" 1745   2.504   6.010   2.943  0.3572 -0.7130  0.1782
   92EMI    H2" 1746   2.563   6.100   2.953  0.0043  0.7650  0.7659
   92EMI    H2" 1747   2.568   5.939   2.888  0.3494 -0.5080  0.4353
   92EMI    H2" 1748   2.407   6.036   2.899 -1.8171 -2.3961  1.6394
   93EMI     N1 1749   5.603   3.760   3.666  0.1055 -0.4926  0.9400
   93EMI     C2 1750   5.597   3.873   3.587  0.0868 -0.3319 -0.2093
   93EMI     N3 1751   5.594   3.830   3.457 -0.3832 -0.0299 -0.0361
   93EMI     C4 1752   5.618   3.700   3.457  0.1908 -0.1374 -0.5187
   93EMI     C5 1753   5.621   3.654   3.581 -0.8122  0.0970  0.4305
   93EMI     H2 1754   5.574   3.972   3.621  1.2935 -0.8657 -0.8443
   93EMI     H4 1755   5.631   3.639   3.367 -1.1835 -1.0701 -0.6392
   93EMI     H5 1756   5.643   3.557   3.613 -0.5492  0.2291  0.1837
   93EMI    C1' 1757   5.598   3.898   3.333 -0.3966 -0.2359  0.1453
   93EMI    H1' 1758   5.497   3.913   3.289  0.5088  0.8375 -1.7893
   93EMI    H1' 1759   5.645   3.998   3.355 -3.3269  1.1039  1.6638
   93EMI    H1' 1760   5.663   3.849   3.262  0.3598 -1.6947 -1.7570
   93EMI    C1" 1761   5.598   3.755   3.815 -0.6822  0.5970 -0.4279
   93EMI    H1" 1762   5.675   3.821   3.855 -1.1688  2.7719  4.2095
   93EMI    H1" 1763   5.616   3.656   3.845  0.1080  1.0484  2.7030
   93EMI    C2" 1764   5.456   3.779   3.868  0.4502  0.0074  0.1371
   93EMI    H2" 1765   5.369   3.735   3.819  1.6812  0.7545 -2.9437
   93EMI    H2" 1766   5.464   3.742   3.971 -0.6729 -1.4587 -2.5265
   93EMI    H2" 1767   5.451   3.894   3.868  1.3958  3.3400 -1.7212
   94EMI     N1 1768   4.440   1.993   4.835 -0.2735  0.0241  0.3512
   94EMI     C2 1769   4.493   2.106   4.887 -0.0807  0.7519 -0.2558
   94EMI     N3 1770   4.496   2.194   4.781  0.2245 -0.2727  0.3916
   94EMI     C4 1771   4.433   2.137   4.674 -0.6215  0.7101  0.1060
   94EMI     C5 1772   4.398   2.011   4.703 -0.0446  0.1559 -0.3660
   94EMI     H2 1773   4.534   2.113   4.987  1.0820 -1.9751  1.4537
   94EMI     H4 1774   4.410   2.189   4.581  0.6322  0.8543  1.0366
   94EMI     H5 1775   4.346   1.939   4.643  1.0181 -1.4936  0.7341
   94EMI    C1' 1776   4.563   2.325   4.773 -0.1134 -0.3301 -0.3081
   94EMI    H1' 1777   4.666   2.314   4.735  2.8430  0.5207  1.2814
   94EMI    H1' 1778   4.515   2.387   4.697 -0.4219  1.3762 -0.6772
   94EMI    H1' 1779   4.571   2.374   4.877  1.2144 -0.2172  1.3484
   94EMI    C1" 1780   4.406   1.870   4.899  0.3535 -0.1501  0.0660
   94EMI    H1" 1781   4.508   1.823   4.915  3.7758 -0.3753  1.6626
   94EMI    H1" 1782   4.358   1.802   4.828  4.4811 -1.7315  1.5070
   94EMI    C2" 1783   4.331   1.887   5.032  0.2668  0.1048  0.9286
   94EMI    H2" 1784   4.258   1.965   5.009  0.1413  0.6224  1.6869
   94EMI    H2" 1785   4.282   1.794   5.042  1.1780  1.6815 -1.9717
   94EMI    H2" 1786   4.390   1.910   5.117 -0.3118  1.0878  1.5210
   95EMI     N1 1787   3.814   5.289   2.364  1.0125  0.0845 -0.6021
   95EMI     C2 1788   3.947   5.297   2.346  0.7571  1.0462 -0.0412
   95EMI     N3 1789   3.972   5.224   2.237 -0.2245  0.4565  0.1004
   95EMI     C4 1790   3.856   5.182   2.180  0.0398 -0.3033 -0.8709
   95EMI     C5 1791   3.755   5.218   2.266 -0.0962 -0.1668 -0.4742
   95EMI     H2 1792   4.021   5.340   2.412  4.3101 -2.6544 -2.2813
   95EMI     H4 1793   3.851   5.127   2.086 -1.1205  0.4393 -4.5282
   95EMI     H5 1794   3.651   5.197   2.242  0.0990 -0.4857 -0.8834
   95EMI    C1' 1795   4.105   5.210   2.166 -0.3085  0.0841 -0.2395
   95EMI    H1' 1796   4.166   5.305   2.183 -0.1946 -1.5582 -1.0339
   95EMI    H1' 1797   4.150   5.118   2.198 -2.4580  0.2589 -1.3365
   95EMI    H1' 1798   4.084   5.226   2.061  1.2892 -1.1345 -1.5816
   95EMI    C1" 1799   3.743   5.364   2.476 -0.0647 -0.3208 -0.8527
   95EMI    H1" 1800   3.825   5.391   2.546  2.6250 -0.4427 -1.3628
   95EMI    H1" 1801   3.679   5.294   2.527  0.1315 -1.2284  0.4877
   95EMI    C2" 1802   3.668   5.494   2.432 -0.0992  0.1830 -0.1576
   95EMI    H2" 1803   3.735   5.546   2.363 -1.3413  0.4872 -2.3260
   95EMI    H2" 1804   3.576   5.478   2.377  1.8926 -1.3469 -0.9196
   95EMI    H2" 1805   3.627   5.554   2.519  0.4592  1.4493  1.2867
   96EMI     N1 1806   3.597   2.135   3.954 -0.0001  0.1272  0.2601
   96EMI     C2 1807   3.702   2.217   3.940 -0.0998 -0.4770  0.2716
   96EMI     N3 1808   3.677   2.322   3.867  0.3010  0.0356 -0.1569
   96EMI     C4 1809   3.543   2.313   3.840 -0.0704 -0.8387  0.0392
   96EMI     C5 1810   3.498   2.195   3.883 -0.0836 -0.4598 -0.2807
   96EMI     H2 1811   3.798   2.205   3.988 -0.0498  1.5519 -1.9024
   96EMI     H4 1812   3.476   2.380   3.793  0.4789 -2.7623  1.3780
   96EMI     H5 1813   3.405   2.160   3.875  2.4682 -0.7171  1.8352
   96EMI    C1' 1814   3.757   2.445   3.845  0.0609  0.2645 -0.5760
   96EMI    H1' 1815   3.756   2.445   3.734 -0.1457 -1.1827 -0.8516
   96EMI    H1' 1816   3.714   2.531   3.889  1.4197  0.6889  0.6230
   96EMI    H1' 1817   3.863   2.434   3.883  0.6439 -2.0984  0.2483
   96EMI    C1" 1818   3.579   2.006   4.013 -0.2675 -0.1588  0.6189
   96EMI    H1" 1819   3.479   1.991   4.039  0.1147 -0.8367  0.5630
   96EMI    H1" 1820   3.642   1.997   4.102 -0.4306 -0.5815  0.2130
   96EMI    C2" 1821   3.636   1.896   3.919  0.2313  0.0364  0.3545
   96EMI    H2" 1822   3.630   1.806   3.984  0.4637  0.7232  2.6925
   96EMI    H2" 1823   3.569   1.890   3.832  0.7280  0.9582  2.4952
   96EMI    H2" 1824   3.738   1.910   3.891 -0.4605  2.3987 -2.9544
   97EMI     N1 1825   3.111   2.915   4.932 -0.5725  0.7793 -0.2589
   97EMI     C2 1826   3.053   2.793   4.929  0.2763 -1.0660  0.1720
   97EMI     N3 1827   2.986   2.774   4.810 -0.6214 -0.4269 -0.0440
   97EMI     C4 1828   2.998   2.893   4.734  0.7357  0.7158  0.1905
   97EMI     C5 1829   3.078   2.974   4.810  0.2300  0.6578  0.0637
   97EMI     H2 1830   3.067   2.708   4.997  0.0423 -2.7122 -0.3889
   97EMI     H4 1831   2.960   2.914   4.635 -3.3126  2.1462 -1.5809
   97EMI     H5 1832   3.116   3.073   4.778 -0.1784 -0.3982  0.5923
   97EMI    C1' 1833   2.911   2.662   4.748 -0.0981 -0.2544  0.2532
   97EMI    H1' 1834   2.806   2.675   4.778 -1.5541 -0.0243 -1.2036
   97EMI    H1' 1835   2.915   2.672   4.634 -0.5489 -0.2575  0.2148
   97EMI    H1' 1836   2.964   2.564   4.775  0.5267 -1.4427 -0.9498
   97EMI    C1" 1837   3.193   2.983   5.031  0.2302  1.2181 -0.2879
   97EMI    H1" 1838   3.133   3.045   5.090  0.8811 -2.2178 -0.4766
   97EMI    H1" 1839   3.279   3.032   4.984  1.7852 -1.0347  0.4683
   97EMI    C2" 1840   3.249   2.884   5.129 -0.1692 -0.0305 -0.1804
   97EMI    H2" 1841   3.182   2.834   5.201 -1.0396  2.6046 -2.0722
   97EMI    H2" 1842   3.301   2.800   5.076 -0.1451 -1.6440  1.1108
   97EMI    H2" 1843   3.328   2.940   5.195  1.1022  0.1069  2.6210
   98EMI     N1 1844   1.333   2.186   5.403  0.2125  0.2198 -0.1438
   98EMI     C2 1845   1.469   2.177   5.413  0.2865 -0.6538 -0.0297
   98EMI     N3 1846   1.521   2.304   5.415 -0.0056  0.0435 -0.2275
   98EMI     C4 1847   1.418   2.393   5.424 -0.2414  0.3762 -0.4606
   98EMI     C5 1848   1.306   2.321   5.425  0.3649  0.9136  0.8860
   98EMI     H2 1849   1.516   2.089   5.380  1.3706  0.2437  1.3165
   98EMI     H4 1850   1.438   2.499   5.418  0.3976 -2.1067 -2.6066
   98EMI     H5 1851   1.205   2.366   5.421 -2.0423  0.1228 -0.2176
   98EMI    C1' 1852   1.664   2.344   5.422 -0.5760  0.1411 -0.1477
   98EMI    H1' 1853   1.696   2.336   5.322  0.4412  1.7212  1.6931
   98EMI    H1' 1854   1.665   2.447   5.448 -0.6774  0.5018  4.0828
   98EMI    H1' 1855   1.708   2.281   5.505 -0.2568  0.2570 -0.4551
   98EMI    C1" 1856   1.235   2.078   5.375 -0.3833 -1.0114  0.7969
   98EMI    H1" 1857   1.147   2.082   5.436  0.9382  0.4795  0.0877
   98EMI    H1" 1858   1.278   1.983   5.396 -2.5488  0.5425  0.3235
   98EMI    C2" 1859   1.192   2.088   5.224  0.5226 -0.2061  0.4943
   98EMI    H2" 1860   1.129   2.169   5.202 -0.9408 -0.8491  1.0932
   98EMI    H2" 1861   1.284   2.085   5.157 -0.7810  0.4963 -1.5177
   98EMI    H2" 1862   1.142   1.991   5.204 -1.3473 -1.8110  2.0463
   99EMI     N1 1863   4.340   3.332   2.363 -0.0571  0.4469 -0.0024
   99EMI     C2 1864   4.248   3.319   2.462 -0.8228  1.0713 -0.4541
   99EMI     N3 1865   4.300   3.243   2.558 -0.0478 -0.7084  0.2460
   99EMI     C4 1866   4.434   3.229   2.536  0.2440  0.0613  0.5235
   99EMI     C5 1867   4.462   3.276   2.408  0.3548 -0.4460 -0.5846
   99EMI     H2 1868   4.156   3.369   2.454  0.6232  0.5628  2.2840
   99EMI     H4 1869   4.504   3.192   2.611  0.8235  0.6522 -1.4391
   99EMI     H5 1870   4.552   3.296   2.358 -2.5479 -1.4984 -0.2717
   99EMI    C1' 1871   4.237   3.189   2.678 -0.2080  0.8180 -0.3841
   99EMI    H1' 1872   4.153   3.250   2.696 -1.6972 -0.8755  1.5237
   99EMI    H1' 1873   4.203   3.092   2.667 -0.5955  0.6675 -0.9608
   99EMI    H1' 1874   4.306   3.197   2.756 -1.2380 -2.3138 -0.8339
   99EMI    C1" 1875   4.340   3.404   2.236 -0.5894 -0.3209 -0.8066
   99EMI    H1" 1876   4.446   3.421   2.201  0.7992 -1.2271  0.0321
   99EMI    H1" 1877   4.304   3.506   2.245  0.5042  1.8389  3.8181
   99EMI    C2" 1878   4.261   3.333   2.124  0.0327  0.6630  0.1569
   99EMI    H2" 1879   4.154   3.298   2.155 -0.5284  2.6002  2.6772
   99EMI    H2" 1880   4.243   3.394   2.043  0.3917 -0.4953  3.4169
   99EMI    H2" 1881   4.320   3.249   2.092  3.5216  2.5358 -2.0865
  100EMI     N1 1882   1.857   5.480   2.717  0.5714 -0.3438 -0.6729
  100EMI     C2 1883   1.856   5.478   2.851 -0.5470 -0.0606  0.1611
  100EMI     N3 1884   1.888   5.597   2.899  0.3780  0.4200 -0.2704
  100EMI     C4 1885   1.909   5.678   2.790 -0.3711 -0.1537  0.0399
  100EMI     C5 1886   1.899   5.606   2.679  0.6532  0.1786  0.5668
  100EMI     H2 1887   1.845   5.393   2.916 -0.7581  0.7194  1.1107
  100EMI     H4 1888   1.930   5.784   2.804  1.6814  0.4027 -2.1188
  100EMI     H5 1889   1.901   5.648   2.583 -0.4646 -0.0361  0.3346
  100EMI    C1' 1890   1.892   5.640   3.043 -0.0063 -0.1673 -0.1862
  100EMI    H1' 1891   1.796   5.610   3.091  1.4151 -3.9137  2.4529
  100EMI    H1' 1892   1.976   5.585   3.092 -1.8062  1.0894  1.5119
  100EMI    H1' 1893   1.909   5.755   3.043 -1.4712 -0.5579 -0.7185
  100EMI    C1" 1894   1.822   5.383   2.617 -0.5415 -0.2423 -0.2692
  100EMI    H1" 1895   1.759   5.428   2.546  1.0858  0.3562  2.4566
  100EMI    H1" 1896   1.759   5.309   2.661 -1.3528  3.7142 -0.9506
  100EMI    C2" 1897   1.941   5.332   2.532  0.0742  0.4527 -0.3321
  100EMI    H2" 1898   1.990   5.420   2.485 -1.0886 -1.6023 -0.2919
  100EMI    H2" 1899   2.014   5.269   2.589 -0.4101 -0.3907 -2.8214
  100EMI    H2" 1900   1.899   5.266   2.459 -0.6494 -0.1139 -0.7805
  101EMI     N1 1901   5.620   0.226   5.018  0.3999 -0.3900 -0.3366
  101EMI     C2 1902   5.710   0.155   5.084  0.5741  0.4758 -0.0670
  101EMI     N3 1903   5.830   0.169   5.027 -0.2595  0.1046  0.6524
  101EMI     C4 1904   5.813   0.253   4.922  0.7148  0.1256  0.4841
  101EMI     C5 1905   5.685   0.294   4.916  0.2070 -0.5849 -0.1327
  101EMI     H2 1906   5.692   0.094   5.173  0.3668  0.4318  1.6411
  101EMI     H4 1907   5.893   0.291   4.861 -1.5817  0.4424 -0.6353
  101EMI     H5 1908   5.642   0.356   4.845  1.3308 -1.0803  0.7614
  101EMI    C1' 1909   5.964   0.122   5.060 -0.0930  0.7371 -0.2653
  101EMI    H1' 1910   6.022   0.219   5.064 -1.0291  3.0005 -3.0609
  101EMI    H1' 1911   5.953   0.063   5.151  2.3796  1.4708 -0.9992
  101EMI    H1' 1912   5.999   0.064   4.982 -0.0576 -0.3892  3.7327
  101EMI    C1" 1913   5.476   0.251   5.053 -0.4695  0.1361 -1.1984
  101EMI    H1" 1914   5.452   0.357   5.058  2.8490 -0.9928  0.8677
  101EMI    H1" 1915   5.441   0.203   5.150 -0.1179  0.6717 -1.2229
  101EMI    C2" 1916   5.379   0.208   4.948  0.7050 -0.6269 -0.5966
  101EMI    H2" 1917   5.363   0.098   4.945  0.8624 -3.3837  0.0331
  101EMI    H2" 1918   5.287   0.249   4.980  0.3862  0.8880  2.5241
  101EMI    H2" 1919   5.391   0.246   4.848 -2.0076  0.1644 -1.4535
  102EMI     N1 1920   6.093   3.868   1.207  0.2722 -0.3278  0.2777
  102EMI     C2 1921   6.077   3.767   1.298  0.6938  0.4113 -0.2503
  102EMI     N3 1922   6.015   3.662   1.241 -0.0324 -0.3273 -0.3721
  102EMI     C4 1923   5.994   3.692   1.109 -0.4639  0.4762 -0.6732
  102EMI     C5 1924   6.035   3.822   1.088  0.2500  0.0122 -0.2499
  102EMI     H2 1925   6.126   3.773   1.395  0.7114 -0.6258 -1.2483
  102EMI     H4 1926   5.942   3.635   1.034 -1.0949 -0.1888  0.0384
  102EMI     H5 1927   6.028   3.872   0.994 -1.5908  0.2604 -0.2162
  102EMI    C1' 1928   6.003   3.525   1.292  0.0853  0.6043 -0.1045
  102EMI    H1' 1929   5.959   3.465   1.224  0.9015 -1.8976  1.8680
  102EMI    H1' 1930   6.106   3.487   1.297 -1.3923 -0.1834 -0.7380
  102EMI    H1' 1931   5.944   3.525   1.387 -3.1071  0.2029  1.7047
  102EMI    C1" 1932   6.173   3.993   1.214 -0.4875  0.5748 -0.3243
  102EMI    H1" 1933   6.235   3.995   1.127  1.2726  1.2382  0.1653
  102EMI    H1" 1934   6.252   3.986   1.287  2.7483 -0.8293  1.6413
  102EMI    C2" 1935   6.092   4.121   1.217 -1.1081 -0.0462  1.2801
  102EMI    H2" 1936   6.022   4.109   1.300 -0.3655  0.6501  1.1699
  102EMI    H2" 1937   6.172   4.194   1.229 -0.3280  3.1018 -2.1194
  102EMI    H2" 1938   6.038   4.131   1.127 -0.3351 -1.7037 -1.0089
  103EMI     N1 1939   4.933   0.662   1.933  0.0834 -0.9121  0.0765
  103EMI     C2 1940   4.930   0.790   1.900 -0.0006  0.3602  0.5839
  103EMI     N3 1941   4.926   0.806   1.767 -0.0349 -0.0384 -0.1422
  103EMI     C4 1942   4.915   0.684   1.707 -0.5547 -0.0821 -0.0255
  103EMI     C5 1943   4.931   0.590   1.809  0.1048  0.0512 -0.3998
  103EMI     H2 1944   4.959   0.865   1.972  0.6705 -0.6515 -0.0055
  103EMI     H4 1945   4.904   0.668   1.602  1.7429 -2.1808  2.0246
  103EMI     H5 1946   4.933   0.483   1.808 -1.0067 -0.4001  0.3410
  103EMI    C1' 1947   4.928   0.933   1.692 -0.6300  0.0992 -0.1798
  103EMI    H1' 1948   4.834   0.991   1.709  0.7164 -0.7020 -0.6719
  103EMI    H1' 1949   5.021   1.002   1.704  0.4131  2.7482 -0.6606
  103EMI    H1' 1950   4.926   0.908   1.584  1.2021 -0.7987 -1.0282
  103EMI    C1" 1951   4.921   0.599   2.061  0.5848 -0.3187  0.4683
  103EMI    H1" 1952   5.010   0.540   2.085  0.0612  1.8590 -0.9259
  103EMI    H1" 1953   4.826   0.546   2.056 -2.9352 -1.0418 -0.8045
  103EMI    C2" 1954   4.905   0.704   2.167  0.0162  0.5434 -0.6295
  103EMI    H2" 1955   4.828   0.778   2.146 -1.8715  3.6368 -0.1056
  103EMI    H2" 1956   4.890   0.657   2.264 -1.3808 -0.2054  2.3888
  103EMI    H2" 1957   4.993   0.767   2.176 -0.1990  0.2373 -0.8660
  104EMI     N1 1958   4.438   5.017   5.834  0.1498  0.1161  0.1384
  104EMI     C2 1959   4.526   4.942   5.900 -0.1372 -0.4156  0.6600
  104EMI     N3 1960   4.530   4.974   6.028 -0.1645 -0.1700  0.2517
  104EMI     C4 1961   4.445   5.086   6.044 -0.3322  0.0735  0.4232
  104EMI     C5 1962   4.386   5.103   5.928  0.4969 -0.0565  0.0639
  104EMI     H2 1963   4.571   4.850   5.857  1.9510 -1.2631 -2.1870
  104EMI     H4 1964   4.442   5.133   6.138  1.3956 -0.1839  0.1426
  104EMI     H5 1965   4.308   5.184   5.916 -0.6188 -1.0086  1.6537
  104EMI    C1' 1966   4.603   4.920   6.139  0.2664 -0.3640 -0.2058
  104EMI    H1' 1967   4.700   4.962   6.131  0.7231  2.8676  1.0959
  104EMI    H1' 1968   4.549   4.942   6.234  1.9593 -0.7762  0.7407
  104EMI    H1' 1969   4.593   4.813   6.121 -1.7670 -1.7487 -0.2856
  104EMI    C1" 1970   4.394   5.009   5.689 -0.3316 -0.8950  0.7459
  104EMI    H1" 1971   4.463   4.939   5.639  0.6946 -2.7306  1.3213
  104EMI    H1" 1972   4.393   5.119   5.657 -1.2965  0.8850 -0.5441
  104EMI    C2" 1973   4.264   4.929   5.682 -0.0043  0.2788  0.0448
  104EMI    H2" 1974   4.176   4.990   5.719 -0.8061 -0.4966 -0.6716
  104EMI    H2" 1975   4.247   4.887   5.580 -0.6798  0.0269 -1.3752
  104EMI    H2" 1976   4.275   4.843   5.746  1.0036 -1.3207 -2.0664
  105EMI     N1 1977   2.946   0.267   1.973 -0.5979  0.6787 -0.4449
  105EMI     C2 1978   3.035   0.369   1.998 -0.8193  0.3117  0.4657
  105EMI     N3 1979   3.089   0.346   2.124  0.6668 -0.1712  0.1885
  105EMI     C4 1980   3.050   0.223   2.165 -0.0559 -0.2954 -0.4117
  105EMI     C5 1981   2.964   0.169   2.071  0.3131  0.5992 -0.0491
  105EMI     H2 1982   3.051   0.459   1.937  2.3682 -3.5827  1.1868
  105EMI     H4 1983   3.087   0.184   2.263  0.0405 -2.4011 -0.9034
  105EMI     H5 1984   2.908   0.072   2.067 -1.3178  1.7062  0.7855
  105EMI    C1' 1985   3.196   0.418   2.197  0.2549 -0.3670 -0.3155
  105EMI    H1' 1986   3.152   0.514   2.255  0.9095  4.0630 -3.7394
  105EMI    H1' 1987   3.254   0.344   2.256 -2.8534 -0.0251  1.5345
  105EMI    H1' 1988   3.258   0.460   2.116 -1.3314  2.2478  0.4437
  105EMI    C1" 1989   2.846   0.271   1.865 -0.0878 -0.0169  0.1275
  105EMI    H1" 1990   2.818   0.373   1.840  0.6881 -0.5380 -5.1180
  105EMI    H1" 1991   2.760   0.220   1.912 -1.3828  0.1056  2.0832
  105EMI    C2" 1992   2.893   0.206   1.734  0.1497  0.3254 -0.4776
  105EMI    H2" 1993   2.990   0.241   1.702  0.7395  1.1773  0.7548
  105EMI    H2" 1994   2.909   0.100   1.742 -0.6375  2.0482 -0.9770
  105EMI    H2" 1995   2.813   0.225   1.661 -0.3674  3.0286  1.4300
  106EMI     N1 1996   4.657   2.955   3.628  0.8663  0.3169  0.1829
  106EMI     C2 1997   4.781   2.956   3.675 -0.1767  0.3291  0.3524
  106EMI     N3 1998   4.876   2.943   3.577 -0.3197 -0.1162  0.8783
  106EMI     C4 1999   4.800   2.935   3.463 -0.1271 -0.0229 -0.3140
  106EMI     C5 2000   4.670   2.940   3.487 -0.6000  0.6939  0.5511
  106EMI     H2 2001   4.808   2.962   3.782 -1.1485  0.9264 -1.1752
  106EMI     H4 2002   4.851   2.916   3.367 -3.3447  0.7335  0.5913
  106EMI     H5 2003   4.588   2.932   3.413 -2.1587  0.8882  1.0530
  106EMI    C1' 2004   5.021   2.906   3.581  1.3385  0.5132 -0.5195
  106EMI    H1' 2005   5.020   2.821   3.518 -0.9031  1.8931  0.7099
  106EMI    H1' 2006   5.076   2.991   3.547 -0.9868 -2.3540  1.1405
  106EMI    H1' 2007   5.041   2.869   3.683  0.2321 -0.1487  1.2760
  106EMI    C1" 2008   4.530   2.971   3.703 -0.1321 -0.0527 -0.1491
  106EMI    H1" 2009   4.551   2.949   3.809 -0.4347 -0.8994  0.6237
  106EMI    H1" 2010   4.450   2.902   3.685 -0.3131  0.0075 -0.1106
  106EMI    C2" 2011   4.483   3.118   3.693 -0.2360  0.3881  0.6071
  106EMI    H2" 2012   4.483   3.159   3.593 -0.6715  0.4197 -0.1067
  106EMI    H2" 2013   4.377   3.119   3.717  0.3554 -0.8298 -0.2951
  106EMI    H2" 2014   4.538   3.194   3.749 -0.0786 -0.0705  0.9215
  107EMI     N1 2015   5.834   3.818   1.867  0.3830  0.7454  0.2334
  107EMI     C2 2016   5.746   3.856   1.769 -0.1407  0.7112  0.7062
  107EMI     N3 2017   5.623   3.803   1.805 -0.0794 -0.1118 -0.2871
  107EMI     C4 2018   5.636   3.752   1.936 -0.5481 -0.6809  0.0622
  107EMI     C5 2019   5.765   3.763   1.973 -0.2476  0.3690  0.3215
  107EMI     H2 2020   5.780   3.901   1.674 -0.4207  0.0696 -0.3674
  107EMI     H4 2021   5.558   3.723   2.005  1.4733 -1.5919  0.4534
  107EMI     H5 2022   5.805   3.732   2.071 -0.8447  1.2695 -1.1183
  107EMI    C1' 2023   5.498   3.799   1.725  0.5719  0.3453 -0.0327
  107EMI    H1' 2024   5.460   3.902   1.694 -3.5501  3.3276  2.0121
  107EMI    H1' 2025   5.507   3.749   1.635  0.1580  1.4223 -1.2657
  107EMI    H1' 2026   5.423   3.759   1.793 -4.0903  0.5538  2.6004
  107EMI    C1" 2027   5.986   3.828   1.869  0.0366 -0.0054 -0.1616
  107EMI    H1" 2028   6.021   3.770   1.962  2.3806 -2.5104 -2.3584
  107EMI    H1" 2029   6.020   3.934   1.876 -2.3499 -1.3933  3.5352
  107EMI    C2" 2030   6.040   3.749   1.753  0.2296 -0.7188 -0.4602
  107EMI    H2" 2031   6.002   3.778   1.652 -0.5621 -1.0742  0.9221
  107EMI    H2" 2032   6.147   3.751   1.745 -1.2983  1.9519 -1.2026
  107EMI    H2" 2033   6.009   3.649   1.764 -3.2425 -0.0976  0.0865
  108EMI     N1 2034   5.386   2.015   0.901  0.2621 -0.4578  0.0147
  108EMI     C2 2035   5.327   2.117   0.831  0.1338 -0.0778  1.1875
  108EMI     N3 2036   5.271   2.067   0.717 -0.7121  0.1868 -0.3476
  108EMI     C4 2037   5.286   1.930   0.724  0.0721  0.6783 -0.1372
  108EMI     C5 2038   5.351   1.897   0.837  0.0001 -0.0527  0.7450
  108EMI     H2 2039   5.333   2.220   0.845 -0.6465 -0.1635  0.4669
  108EMI     H4 2040   5.245   1.865   0.648 -1.4438  1.9615 -2.6548
  108EMI     H5 2041   5.373   1.796   0.867 -3.0983 -1.5760  1.2911
  108EMI    C1' 2042   5.210   2.133   0.604 -0.1737 -0.3101  0.3509
  108EMI    H1' 2043   5.284   2.163   0.537 -1.3388 -0.4400 -0.8162
  108EMI    H1' 2044   5.155   2.055   0.561  0.0419  0.4070  0.7516
  108EMI    H1' 2045   5.142   2.206   0.640  4.5413  0.3768 -0.2129
  108EMI    C1" 2046   5.454   2.010   1.029  0.6637  0.3843  0.4675
  108EMI    H1" 2047   5.399   1.939   1.099 -2.4871  0.0688 -0.4268
  108EMI    H1" 2048   5.472   2.112   1.073  1.4392  3.1689 -0.3520
  108EMI    C2" 2049   5.592   1.954   0.992 -0.0969 -0.2607 -0.3313
  108EMI    H2" 2050   5.660   1.959   1.078  1.5254  0.8974 -1.4815
  108EMI    H2" 2051   5.586   1.854   0.966 -2.2374 -1.5079  0.4814
  108EMI    H2" 2052   5.622   2.016   0.917 -0.4393 -0.4503  1.1558
  109EMI     N1 2053   1.768   4.821   1.605 -0.3175 -0.2910  0.3735
  109EMI     C2 2054   1.764   4.846   1.472  0.7243  1.0654  0.5751
  109EMI     N3 2055   1.854   4.779   1.404  1.2019 -0.2932 -0.0866
  109EMI     C4 2056   1.934   4.724   1.498  0.0178 -0.1916 -0.5881
  109EMI     C5 2057   1.882   4.742   1.624  0.3443 -0.9687  0.3858
  109EMI     H2 2058   1.690   4.911   1.433 -1.5287 -1.0088  2.9895
  109EMI     H4 2059   2.029   4.670   1.476 -0.6365 -1.1968 -0.4847
  109EMI     H5 2060   1.923   4.702   1.719 -0.5740  1.2976 -1.8548
  109EMI    C1' 2061   1.891   4.770   1.258  0.2147  0.3378  0.0291
  109EMI    H1' 2062   1.954   4.686   1.244  1.4255  0.0159  0.8749
  109EMI    H1' 2063   1.801   4.771   1.196 -0.7166 -1.0803 -1.5782
  109EMI    H1' 2064   1.951   4.866   1.240  0.1815 -2.3555 -0.5617
  109EMI    C1" 2065   1.682   4.879   1.711  0.2220  0.4253  0.5451
  109EMI    H1" 2066   1.581   4.883   1.669 -1.7787 -0.5152 -1.1570
  109EMI    H1" 2067   1.720   4.981   1.739 -0.0509 -0.2448  1.3284
  109EMI    C2" 2068   1.672   4.799   1.838 -0.5098  0.8079 -0.1748
  109EMI    H2" 2069   1.599   4.722   1.830 -1.1208 -0.3242  0.4890
  109EMI    H2" 2070   1.766   4.756   1.866 -1.2645  0.0985 -1.2071
  109EMI    H2" 2071   1.648   4.862   1.921  0.1618 -3.4875 -2.5599
  110EMI     N1 2072   2.303   1.812   0.501 -0.1082 -0.8553  0.2125
  110EMI     C2 2073   2.421   1.861   0.548  0.4249  0.4438  0.3751
  110EMI     N3 2074   2.399   1.945   0.653  0.5402  0.4311 -0.5232
  110EMI     C4 2075   2.255   1.958   0.654 -0.4798 -0.4508  0.7516
  110EMI     C5 2076   2.202   1.872   0.569  0.0678  0.8353 -0.5423
  110EMI     H2 2077   2.520   1.824   0.517 -2.6419 -0.8370 -0.9506
  110EMI     H4 2078   2.198   2.024   0.713  0.9260  2.5322 -0.6568
  110EMI     H5 2079   2.103   1.848   0.540 -1.0627  0.8983  0.8948
  110EMI    C1' 2080   2.478   2.001   0.765 -0.4400  0.5339 -0.1507
  110EMI    H1' 2081   2.443   2.105   0.783  1.8289  0.8505  0.0198
  110EMI    H1' 2082   2.459   1.959   0.862 -1.9223  1.6505 -1.4564
  110EMI    H1' 2083   2.585   2.005   0.733  1.5132 -0.4725 -1.4232
  110EMI    C1" 2084   2.280   1.743   0.368  0.5272 -0.0228  0.0932
  110EMI    H1" 2085   2.192   1.772   0.316  0.9651  0.1859 -1.5013
  110EMI    H1" 2086   2.271   1.633   0.388 -1.5849 -1.1059  2.2516
  110EMI    C2" 2087   2.401   1.750   0.276 -0.0529  0.2994 -0.3140
  110EMI    H2" 2088   2.386   1.704   0.177 -3.0471 -4.4808 -2.2062
  110EMI    H2" 2089   2.427   1.856   0.260  1.5835 -1.8613  0.3962
  110EMI    H2" 2090   2.485   1.707   0.330  0.8406 -0.3449  0.8593
  111EMI     N1 2091   2.395   3.057   4.299 -0.3559  0.1210  0.1906
  111EMI     C2 2092   2.383   2.989   4.185  0.1569  0.6019  0.1446
  111EMI     N3 2093   2.369   3.070   4.081 -0.0047  0.3602  0.3939
  111EMI     C4 2094   2.376   3.195   4.137 -0.8534 -0.0257  0.4565
  111EMI     C5 2095   2.392   3.183   4.270  0.2351 -0.3130  0.4569
  111EMI     H2 2096   2.370   2.886   4.199 -2.4498  0.7495  0.4535
  111EMI     H4 2097   2.344   3.288   4.085 -0.4063 -1.4310  0.6847
  111EMI     H5 2098   2.397   3.266   4.337  1.6308 -0.3372 -1.1765
  111EMI    C1' 2099   2.340   3.037   3.937 -0.0431 -0.3397  0.5764
  111EMI    H1' 2100   2.326   3.125   3.891  2.3227 -3.4473  1.4730
  111EMI    H1' 2101   2.426   2.983   3.891 -0.2961  0.1015  0.3934
  111EMI    H1' 2102   2.256   2.968   3.938  0.3333  1.0484 -1.4364
  111EMI    C1" 2103   2.420   3.019   4.442 -0.3755  0.2397  0.2639
  111EMI    H1" 2104   2.517   3.071   4.467  0.7236  0.1825 -0.2421
  111EMI    H1" 2105   2.420   2.907   4.457  2.2445 -0.3127  0.8994
  111EMI    C2" 2106   2.307   3.057   4.533 -0.8198 -0.6020 -0.5046
  111EMI    H2" 2107   2.277   3.157   4.504  2.6867 -0.7775 -0.7413
  111EMI    H2" 2108   2.230   2.983   4.525  1.0741 -0.5153 -1.7400
  111EMI    H2" 2109   2.339   3.051   4.637  0.8107  1.1673 -0.2348
  112EMI     N1 2110   4.250   3.641   2.744 -0.3268 -0.2933 -0.1278
  112EMI     C2 2111   4.168   3.619   2.846  0.8805 -0.8444 -0.3356
  112EMI     N3 2112   4.054   3.574   2.799 -0.1519  0.0041 -0.1790
  112EMI     C4 2113   4.058   3.562   2.666  0.1356 -0.0786  0.4579
  112EMI     C5 2114   4.177   3.620   2.628 -0.1815 -0.3090  0.4862
  112EMI     H2 2115   4.200   3.627   2.949  0.4342 -1.0243  0.7445
  112EMI     H4 2116   3.987   3.521   2.592  1.2045  1.0671 -1.2381
  112EMI     H5 2117   4.227   3.614   2.533  1.2775 -0.6368 -0.6078
  112EMI    C1' 2118   3.935   3.530   2.872 -0.0515  0.0607 -0.1037
  112EMI    H1' 2119   3.936   3.575   2.972  1.8686 -1.1247 -0.7717
  112EMI    H1' 2120   3.852   3.574   2.826 -0.3887  0.1387 -2.2072
  112EMI    H1' 2121   3.935   3.422   2.870 -0.1441 -1.3884 -2.0404
  112EMI    C1" 2122   4.397   3.667   2.735  0.3215 -0.8902 -0.3488
  112EMI    H1" 2123   4.421   3.724   2.824  2.2258  0.1987 -0.8307
  112EMI    H1" 2124   4.406   3.726   2.645  0.8014  1.2244 -1.2266
  112EMI    C2" 2125   4.492   3.546   2.732  0.2236 -0.4003  0.1711
  112EMI    H2" 2126   4.472   3.490   2.816  0.9961  1.9801  0.0856
  112EMI    H2" 2127   4.470   3.488   2.640  0.6279  1.9541 -2.9881
  112EMI    H2" 2128   4.605   3.563   2.726  0.0791  3.2512 -2.1082
  113EMI     N1 2129   0.492   3.914   3.736 -0.0314  0.7028  0.0895
  113EMI     C2 2130   0.389   3.831   3.712  0.0731 -0.8037  0.0476
  113EMI     N3 2131   0.426   3.729   3.637 -0.7837  0.7743  0.3395
  113EMI     C4 2132   0.563   3.743   3.620 -0.3369  0.5549 -0.1291
  113EMI     C5 2133   0.602   3.856   3.684  0.5195 -0.0188 -0.1243
  113EMI     H2 2134   0.286   3.851   3.745 -0.2701 -0.1629 -0.1588
  113EMI     H4 2135   0.633   3.672   3.577 -0.6883 -1.0340 -3.3968
  113EMI     H5 2136   0.701   3.901   3.686  1.5005 -1.3666  1.2023
  113EMI    C1' 2137   0.356   3.613   3.571  0.1306 -0.7801 -0.6975
  113EMI    H1' 2138   0.421   3.529   3.566  0.9108 -0.0047  3.0331
  113EMI    H1' 2139   0.275   3.588   3.632  2.4645  1.1110  1.8033
  113EMI    H1' 2140   0.329   3.647   3.472 -0.6956 -2.4494  0.7180
  113EMI    C1" 2141   0.488   4.044   3.800  0.4208  0.1571 -0.5514
  113EMI    H1" 2142   0.381   4.077   3.810 -2.4937  1.2904 -2.5238
  113EMI    H1" 2143   0.534   4.107   3.725  1.4071  1.0479  0.5652
  113EMI    C2" 2144   0.555   4.031   3.936 -0.4984  0.4293 -0.7685
  113EMI    H2" 2145   0.536   4.129   3.982 -1.2109 -0.3764  1.4803
  113EMI    H2" 2146   0.503   3.956   4.005  2.8716 -1.7511 -0.7343
  113EMI    H2" 2147   0.663   4.009   3.932 -1.1872  1.7753  1.3231
  114EMI     N1 2148   4.263   2.193   2.209  0.0976  0.0082 -0.3429
  114EMI     C2 2149   4.333   2.210   2.323  0.2295  0.0031 -0.3668
  114EMI     N3 2150   4.356   2.086   2.382 -0.0959 -0.5404  0.7067
  114EMI     C4 2151   4.293   1.997   2.296  0.3840 -0.8379  0.0287
  114EMI     C5 2152   4.234   2.060   2.194  0.0983 -0.5431 -0.4255
  114EMI     H2 2153   4.366   2.302   2.373  0.4534 -0.1560 -0.2970
  114EMI     H4 2154   4.302   1.889   2.308 -0.7790 -0.8660 -1.5680
  114EMI     H5 2155   4.190   2.016   2.109  0.9314 -1.9091  2.1759
  114EMI    C1' 2156   4.434   2.034   2.493  0.7011 -0.0112 -0.0049
  114EMI    H1' 2157   4.367   2.031   2.582  0.6047 -0.0848 -0.8304
  114EMI    H1' 2158   4.458   1.930   2.468  0.8178  2.1557  5.0778
  114EMI    H1' 2159   4.518   2.097   2.514 -2.1339 -1.0880  0.6387
  114EMI    C1" 2160   4.233   2.298   2.114  0.6406 -0.5875  0.0394
  114EMI    H1" 2161   4.149   2.270   2.055  2.4838  2.4830  1.7548
  114EMI    H1" 2162   4.321   2.307   2.041  1.1152 -0.5994 -1.4417
  114EMI    C2" 2163   4.186   2.424   2.186 -0.4277 -0.1118 -0.0142
  114EMI    H2" 2164   4.157   2.499   2.117  1.4075 -1.0761 -0.1155
  114EMI    H2" 2165   4.090   2.400   2.242  2.2651  2.9834 -1.2351
  114EMI    H2" 2166   4.266   2.468   2.250  0.6424 -1.4227  3.5117
  115EMI     N1 2167   3.716   1.355   3.487 -0.4096  0.2485 -0.1789
  115EMI     C2 2168   3.813   1.270   3.476 -0.8355  0.1429  0.2929
  115EMI     N3 2169   3.842   1.246   3.342 -0.1967  0.1863 -0.4168
  115EMI     C4 2170   3.753   1.329   3.269  0.0259 -0.5522 -0.2266
  115EMI     C5 2171   3.677   1.395   3.362  0.6951 -0.2525 -0.4372
  115EMI     H2 2172   3.860   1.225   3.558  1.5472 -2.1405  0.1453
  115EMI     H4 2173   3.751   1.330   3.166 -0.0774  0.7015  1.0017
  115EMI     H5 2174   3.596   1.449   3.330  2.2699  1.8557 -0.3628
  115EMI    C1' 2175   3.924   1.141   3.276  0.4474  0.3753  0.8440
  115EMI    H1' 2176   3.911   1.136   3.167 -1.8315  4.3625 -0.7169
  115EMI    H1' 2177   4.029   1.143   3.302 -4.0399 -1.8435  1.5867
  115EMI    H1' 2178   3.899   1.049   3.326  0.2663 -0.5124  1.0183
  115EMI    C1" 2179   3.629   1.388   3.603  0.1919 -0.4033 -0.1756
  115EMI    H1" 2180   3.649   1.307   3.672  2.6876 -2.1287 -2.2990
  115EMI    H1" 2181   3.526   1.396   3.579  1.3886  2.1841 -0.7122
  115EMI    C2" 2182   3.657   1.518   3.675 -0.6341 -0.6559  0.5345
  115EMI    H2" 2183   3.575   1.536   3.745 -2.5624  2.0524  0.3512
  115EMI    H2" 2184   3.751   1.515   3.713  1.2777  0.2227 -1.0134
  115EMI    H2" 2185   3.652   1.599   3.607 -0.3169  0.8587 -0.9258
  116EMI     N1 2186   4.701   0.807   4.201  0.2900 -0.0459 -0.0937
  116EMI     C2 2187   4.829   0.850   4.185  0.1148 -0.3437 -0.1296
  116EMI     N3 2188   4.879   0.872   4.309  0.3820  0.1068  0.0312
  116EMI     C4 2189   4.783   0.849   4.403  0.7577  1.2664  0.5537
  116EMI     C5 2190   4.673   0.804   4.339 -0.5505 -0.3951  0.1289
  116EMI     H2 2191   4.875   0.874   4.093  0.4755  0.8093  2.4534
  116EMI     H4 2192   4.793   0.858   4.511  0.0132  0.2029 -1.4699
  116EMI     H5 2193   4.574   0.785   4.377 -0.5100  2.8769 -1.3760
  116EMI    C1' 2194   5.012   0.916   4.345  0.3662  0.3664  0.5807
  116EMI    H1' 2195   5.002   0.988   4.423  0.5705 -1.3630 -0.7431
  116EMI    H1' 2196   5.072   0.836   4.379 -1.9470 -0.3222 -0.1646
  116EMI    H1' 2197   5.058   0.961   4.255  0.6779 -1.5069  0.5563
  116EMI    C1" 2198   4.591   0.785   4.097  0.9549  0.3915 -0.4694
  116EMI    H1" 2199   4.607   0.686   4.057 -1.3797  2.3332 -2.7307
  116EMI    H1" 2200   4.592   0.862   4.018 -0.8477  1.3167  1.3169
  116EMI    C2" 2201   4.451   0.782   4.154 -0.2818 -0.1161  0.0098
  116EMI    H2" 2202   4.444   0.710   4.243  1.2674 -1.2697  4.7981
  116EMI    H2" 2203   4.425   0.879   4.192  0.9846  2.0631  0.3797
  116EMI    H2" 2204   4.387   0.746   4.074  0.5007  0.0238 -0.2090
  117EMI     N1 2205   2.475   2.427   3.842  0.3462 -0.4601  0.0378
  117EMI     C2 2206   2.511   2.554   3.862  0.2389  0.2831 -0.1192
  117EMI     N3 2207   2.589   2.548   3.975  0.2948 -0.1291  0.7226
  117EMI     C4 2208   2.605   2.421   4.010 -0.1042  0.6783 -0.0087
  117EMI     C5 2209   2.526   2.343   3.938  0.1012 -0.2289  0.2671
  117EMI     H2 2210   2.477   2.633   3.797  0.3674  0.4122  0.2374
  117EMI     H4 2211   2.664   2.383   4.097  0.9245 -0.5727 -0.4958
  117EMI     H5 2212   2.507   2.233   3.947 -1.8133 -1.6635 -4.0217
  117EMI    C1' 2213   2.663   2.659   4.044 -0.5023  0.6901  0.1714
  117EMI    H1' 2214   2.702   2.725   3.971 -1.6847 -3.9642  0.7353
  117EMI    H1' 2215   2.594   2.714   4.116 -0.7311  3.1754 -1.6769
  117EMI    H1' 2216   2.740   2.607   4.099 -0.9447 -2.5721 -0.5102
  117EMI    C1" 2217   2.413   2.359   3.725  0.2168  0.2999 -0.0662
  117EMI    H1" 2218   2.371   2.435   3.657 -0.6934  0.1729 -0.2545
  117EMI    H1" 2219   2.333   2.294   3.768 -1.1708 -1.2444 -0.5286
  117EMI    C2" 2220   2.514   2.258   3.654 -0.7349 -0.2269  0.1248
  117EMI    H2" 2221   2.603   2.228   3.719  0.0490 -1.2307  2.4306
  117EMI    H2" 2222   2.464   2.175   3.609 -0.0049  1.6372 -3.1483
  117EMI    H2" 2223   2.573   2.300   3.573 -0.8110  0.3144  0.9732
  118EMI     N1 2224   5.913   3.028   4.626  0.5546 -0.1326  0.2486
  118EMI     C2 2225   5.919   3.157   4.591  0.6509  0.1029  0.2864
  118EMI     N3 2226   5.797   3.218   4.610  0.1894 -0.4208  0.1089
  118EMI     C4 2227   5.709   3.119   4.646  0.4606 -0.1761 -0.3078
  118EMI     C5 2228   5.779   3.012   4.661  0.0558 -0.7718 -0.5168
  118EMI     H2 2229   6.007   3.216   4.553  0.9072 -1.3713 -1.2754
  118EMI     H4 2230   5.602   3.136   4.658 -0.1004  0.9297 -1.2113
  118EMI     H5 2231   5.734   2.917   4.692 -1.3767  0.8988 -1.3222
  118EMI    C1' 2232   5.750   3.359   4.607 -0.6300  0.2344  0.6448
  118EMI    H1' 2233   5.649   3.367   4.642 -1.4627 -1.1344 -0.9712
  118EMI    H1' 2234   5.815   3.414   4.673  1.0943  2.5373  1.4601
  118EMI    H1' 2235   5.775   3.405   4.506  0.1896 -1.7732  0.5650
  118EMI    C1" 2236   6.015   2.923   4.626 -0.5678  0.5308 -0.1834
  118EMI    H1" 2237   6.026   2.879   4.521 -0.2384  0.8023  2.0605
  118EMI    H1" 2238   5.970   2.851   4.693 -3.1179  1.3124 -1.2821
  118EMI    C2" 2239   6.158   2.968   4.682  0.2082  0.2936 -0.6814
  118EMI    H2" 2240   6.137   3.017   4.780  0.5852  1.1018 -0.1099
  118EMI    H2" 2241   6.228   2.886   4.678 -2.1137  0.8839 -0.1035
  118EMI    H2" 2242   6.191   3.046   4.620  0.8343  0.1462  0.8665
  119EMI     N1 2243   5.540   5.974   2.615 -0.6161 -0.4552  0.2048
  119EMI     C2 2244   5.622   5.867   2.612  0.6646  0.6220 -0.3693
  119EMI     N3 2245   5.675   5.850   2.492  0.5928  0.1904  0.1590
  119EMI     C4 2246   5.613   5.940   2.412  0.5135 -0.1180  0.2257
  119EMI     C5 2247   5.533   6.015   2.483 -0.5100  1.0681 -0.4545
  119EMI     H2 2248   5.647   5.817   2.706 -0.4175  3.0686 -1.4924
  119EMI     H4 2249   5.627   5.947   2.306  1.0576  0.0019 -0.2285
  119EMI     H5 2250   5.479   6.094   2.433 -0.4472  2.3764  0.4796
  119EMI    C1' 2251   5.777   5.753   2.440  0.7493 -0.6574 -0.2050
  119EMI    H1' 2252   5.739   5.703   2.341 -0.8854 -1.4857 -1.0533
  119EMI    H1' 2253   5.866   5.813   2.410  2.5657  0.0651 -1.2207
  119EMI    H1' 2254   5.800   5.672   2.518 -3.6502 -2.9948  0.6748
  119EMI    C1" 2255   5.452   6.022   2.721  0.1820 -0.2599  0.6074
  119EMI    H1" 2256   5.411   5.930   2.769  1.7555 -2.0884 -0.3158
  119EMI    H1" 2257   5.376   6.084   2.686  1.1258 -2.4286 -1.9698
  119EMI    C2" 2258   5.524   6.102   2.813 -0.0688 -0.2897 -0.0282
  119EMI    H2" 2259   5.570   6.177   2.751 -0.6020 -0.1317  0.0881
  119EMI    H2" 2260   5.452   6.148   2.887  0.5143 -3.6558 -0.6112
  119EMI    H2" 2261   5.604   6.044   2.872  1.2267  0.0843  1.7522
  120EMI     N1 2262   6.012   0.116   2.663 -0.7408 -0.0937 -0.5132
  120EMI     C2 2263   6.109   0.169   2.738  0.1499 -0.0445 -0.0150
  120EMI     N3 2264   6.224   0.097   2.723 -0.7876 -0.1909 -0.0172
  120EMI     C4 2265   6.197  -0.006   2.637  0.3286 -0.2608  0.2886
  120EMI     C5 2266   6.067   0.007   2.599 -0.2313 -0.0217 -0.1164
  120EMI     H2 2267   6.089   0.249   2.814 -2.5502 -0.2423  2.2162
  120EMI     H4 2268   6.267  -0.077   2.602 -1.5336  0.5579  1.2162
  120EMI     H5 2269   6.022  -0.069   2.525 -2.1361 -1.8447 -0.4855
  120EMI    C1' 2270   6.350   0.123   2.787  0.4933  0.7625  0.5935
  120EMI    H1' 2271   6.360   0.227   2.803  3.1161 -0.2054  0.6987
  120EMI    H1' 2272   6.352   0.065   2.875  0.7396  1.0115 -2.6596
  120EMI    H1' 2273   6.428   0.106   2.715 -1.5039  0.0990 -1.6486
  120EMI    C1" 2274   5.876   0.153   2.652  0.7901 -0.4125 -0.0443
  120EMI    H1" 2275   5.866   0.178   2.550 -1.0570 -0.3198 -1.0549
  120EMI    H1" 2276   5.861   0.231   2.709  0.5096 -0.3711 -0.2681
  120EMI    C2" 2277   5.772   0.051   2.688  0.0192  0.2471 -0.2956
  120EMI    H2" 2278   5.772  -0.038   2.620  2.9932 -2.2548 -0.3051
  120EMI    H2" 2279   5.785   0.036   2.797  0.9982  0.4816  1.2908
  120EMI    H2" 2280   5.676   0.098   2.679 -0.2508  0.3295  0.7385
  121EMI     N1 2281   4.337   5.807   5.847  0.2599 -0.3372 -0.0672
  121EMI     C2 2282   4.276   5.919   5.888 -0.3392  0.7403 -0.5914
  121EMI     N3 2283   4.308   6.025   5.815  0.4349 -0.0900 -1.0261
  121EMI     C4 2284   4.395   5.978   5.725  0.2867  0.3513  0.0597
  121EMI     C5 2285   4.420   5.846   5.743 -0.7027  0.5713 -0.2143
  121EMI     H2 2286   4.199   5.912   5.969 -0.2549 -0.1264  0.7739
  121EMI     H4 2287   4.433   6.035   5.641 -0.2675 -0.3067  0.3062
  121EMI     H5 2288   4.475   5.779   5.680 -1.5283  2.9271 -0.9405
  121EMI    C1' 2289   4.267   6.167   5.819 -0.3832  0.3510  0.0863
  121EMI    H1' 2290   4.272   6.203   5.716  1.2057 -2.0633  1.0013
  121EMI    H1' 2291   4.164   6.174   5.850 -0.2800  0.2990 -0.0090
  121EMI    H1' 2292   4.337   6.213   5.886  1.3940 -1.7298 -1.4496
  121EMI    C1" 2293   4.318   5.666   5.893 -0.2907 -0.8233  0.6062
  121EMI    H1" 2294   4.328   5.599   5.811  1.2522  0.6184  0.7475
  121EMI    H1" 2295   4.217   5.648   5.923 -0.2450  3.0413  0.6910
  121EMI    C2" 2296   4.409   5.642   6.017  0.1726  0.2086  0.2807
  121EMI    H2" 2297   4.511   5.624   5.976  0.5803 -1.3618  0.7413
  121EMI    H2" 2298   4.420   5.732   6.082 -0.6049  0.6689  0.7206
  121EMI    H2" 2299   4.379   5.559   6.079  0.2423  1.2691  0.0200
  122EMI     N1 2300   0.779   4.064   5.525 -0.5348  0.2170  0.6580
  122EMI     C2 2301   0.904   4.111   5.506  0.3849  0.1240  0.1338
  122EMI     N3 2302   0.934   4.128   5.376  0.3539  0.3371  0.3535
  122EMI     C4 2303   0.812   4.119   5.314  0.3180 -0.2021  0.4898
  122EMI     C5 2304   0.721   4.076   5.403  0.2233  0.3523  0.0093
  122EMI     H2 2305   0.973   4.134   5.585 -0.8881 -0.8780 -1.7147
  122EMI     H4 2306   0.805   4.145   5.208  1.1827  1.1963 -1.3361
  122EMI     H5 2307   0.624   4.045   5.375 -0.6241 -0.0780 -1.5781
  122EMI    C1' 2308   1.055   4.168   5.310 -0.0208 -0.4589  0.5348
  122EMI    H1' 2309   1.075   4.106   5.220  1.1463 -0.3665  1.6654
  122EMI    H1' 2310   1.060   4.277   5.285  0.0777  0.6516 -0.0910
  122EMI    H1' 2311   1.133   4.150   5.380 -1.0343  2.6651 -0.0595
  122EMI    C1" 2312   0.719   4.019   5.656  0.4145 -0.3203  0.2518
  122EMI    H1" 2313   0.772   3.928   5.691  0.7524 -1.4174 -0.8850
  122EMI    H1" 2314   0.618   3.995   5.639 -0.3230 -1.4210 -2.2428
  122EMI    C2" 2315   0.734   4.116   5.771 -0.8250 -0.2164  0.2783
  122EMI    H2" 2316   0.677   4.207   5.759  1.1286 -0.8773 -1.3544
  122EMI    H2" 2317   0.679   4.077   5.860 -0.1476 -1.0324  0.2097
  122EMI    H2" 2318   0.843   4.132   5.782 -2.7197  1.5030 -2.2732
  123EMI     N1 2319   2.114   0.116   2.951 -0.5440 -0.6369  0.0068
  123EMI     C2 2320   2.058   0.038   3.042  0.2308  0.2404 -0.4422
  123EMI     N3 2321   1.972   0.106   3.123 -0.0488 -0.2860 -0.0081
  123EMI     C4 2322   1.956   0.229   3.065 -0.3117 -0.3833  0.1682
  123EMI     C5 2323   2.044   0.239   2.967 -0.2595  0.4269  0.6651
  123EMI     H2 2324   2.069  -0.066   3.046 -0.1746 -2.2744  1.1198
  123EMI     H4 2325   1.888   0.312   3.105  2.9381  2.9655  0.4848
  123EMI     H5 2326   2.046   0.334   2.907 -1.2287  2.5182  0.6250
  123EMI    C1' 2327   1.880   0.065   3.242  0.1477  0.4819  1.0323
  123EMI    H1' 2328   1.776   0.101   3.222  0.6523  0.7082  1.0841
  123EMI    H1' 2329   1.875  -0.043   3.254 -0.3968  0.6759  0.0656
  123EMI    H1' 2330   1.924   0.100   3.333 -1.9436 -0.3202  0.1247
  123EMI    C1" 2331   2.196   0.078   2.840  0.8556  0.1164 -0.6307
  123EMI    H1" 2332   2.141   0.082   2.742 -0.7901 -0.5703 -0.1104
  123EMI    H1" 2333   2.226  -0.024   2.859 -1.1842 -2.3757  1.7069
  123EMI    C2" 2334   2.319   0.174   2.832  0.3069 -0.3876 -0.2400
  123EMI    H2" 2335   2.377   0.157   2.926  0.3180  2.0385 -0.9485
  123EMI    H2" 2336   2.380   0.133   2.746  0.5222  0.2829 -0.3453
  123EMI    H2" 2337   2.296   0.274   2.808  0.2258 -2.7757 -1.1395
  124EMI     N1 2338   3.584   3.901   5.409  0.9248 -0.1214 -0.8008
  124EMI     C2 2339   3.501   3.820   5.342 -0.2589 -0.0858 -0.1256
  124EMI     N3 2340   3.378   3.874   5.345  1.1447  0.2547  0.1675
  124EMI     C4 2341   3.379   3.984   5.435 -0.0578  0.5632 -0.3580
  124EMI     C5 2342   3.512   4.006   5.466  0.0765 -0.1835  0.2463
  124EMI     H2 2343   3.531   3.727   5.302  1.3541  0.1782  2.7508
  124EMI     H4 2344   3.294   4.038   5.461 -1.1512 -1.4282 -2.3098
  124EMI     H5 2345   3.554   4.073   5.543 -0.6298 -0.5045 -1.2315
  124EMI    C1' 2346   3.259   3.834   5.267  0.3846 -0.2786  0.2569
  124EMI    H1' 2347   3.175   3.913   5.284  2.3641  0.9256  4.0266
  124EMI    H1' 2348   3.283   3.819   5.165 -1.9096 -1.2506  0.7804
  124EMI    H1' 2349   3.234   3.743   5.311 -0.1272  0.7333 -0.9030
  124EMI    C1" 2350   3.729   3.889   5.441 -0.7823 -0.1861  0.0907
  124EMI    H1" 2351   3.742   3.806   5.505  3.6219  0.8051  1.4589
  124EMI    H1" 2352   3.753   3.975   5.501  0.4677  0.3599  0.1057
  124EMI    C2" 2353   3.808   3.890   5.306 -0.4460  0.7405 -0.3347
  124EMI    H2" 2354   3.777   3.807   5.242 -0.2408 -3.4149  1.0227
  124EMI    H2" 2355   3.779   3.986   5.265  1.0436  1.0309  3.0019
  124EMI    H2" 2356   3.913   3.894   5.332  1.0832  0.2202  2.2983
  125EMI     N1 2357   0.307   0.440   3.763  0.9057 -0.1199  0.3113
  125EMI     C2 2358   0.183   0.433   3.811 -0.2298  0.4197  0.4344
  125EMI     N3 2359   0.166   0.518   3.915 -0.2367  0.4051 -0.0796
  125EMI     C4 2360   0.283   0.590   3.921  0.1506  0.0873  0.1370
  125EMI     C5 2361   0.369   0.542   3.832 -0.2110  0.1202 -0.1911
  125EMI     H2 2362   0.112   0.366   3.785  0.1826 -1.3316  2.5692
  125EMI     H4 2363   0.306   0.670   3.995  1.1204  1.9582 -1.3111
  125EMI     H5 2364   0.471   0.578   3.813  0.7581  0.2821  0.2922
  125EMI    C1' 2365   0.059   0.526   4.017 -0.1683 -0.5867 -0.4547
  125EMI    H1' 2366  -0.032   0.521   3.970 -1.8288 -2.2911  0.8997
  125EMI    H1' 2367   0.069   0.444   4.090  0.4575 -0.6287  1.3079
  125EMI    H1' 2368   0.069   0.621   4.076  0.3120  1.7024  0.5196
  125EMI    C1" 2369   0.373   0.389   3.637  0.2334 -0.9392 -0.3951
  125EMI    H1" 2370   0.468   0.431   3.635 -0.7954  0.7936  0.4828
  125EMI    H1" 2371   0.323   0.417   3.544  0.3843 -1.2458  1.1707
  125EMI    C2" 2372   0.374   0.235   3.652  0.0100  1.3001 -0.1509
  125EMI    H2" 2373   0.416   0.175   3.573 -0.0538  2.3278  1.9829
  125EMI    H2" 2374   0.436   0.204   3.743  0.6334  0.1723 -0.1584
  125EMI    H2" 2375   0.274   0.195   3.662  1.4423 -3.0685  0.4249
  126EMI     N1 2376   2.303   2.813   3.145  0.2136 -0.1041  0.1284
  126EMI     C2 2377   2.171   2.849   3.140  0.0701 -0.3100 -0.4266
  126EMI     N3 2378   2.170   2.978   3.160  0.2876  0.2223 -0.2046
  126EMI     C4 2379   2.297   3.031   3.186 -0.2220 -0.0155 -0.0383
  126EMI     C5 2380   2.381   2.926   3.170  0.1206  0.6201 -0.1207
  126EMI     H2 2381   2.090   2.774   3.129  1.2875  0.7552  0.5712
  126EMI     H4 2382   2.304   3.138   3.194 -1.7427 -0.7742 -0.3764
  126EMI     H5 2383   2.484   2.935   3.156  1.5587  3.3420 -0.5374
  126EMI    C1' 2384   2.042   3.046   3.147 -0.0440  0.4010  1.0429
  126EMI    H1' 2385   2.053   3.134   3.085  0.8998  0.2994 -0.2372
  126EMI    H1' 2386   1.975   2.989   3.092  2.0777 -3.6980 -0.7396
  126EMI    H1' 2387   2.002   3.086   3.239  0.5166  3.4323 -1.0109
  126EMI    C1" 2388   2.360   2.677   3.134  0.9710 -0.3185 -0.7475
  126EMI    H1" 2389   2.427   2.683   3.041  3.6218  2.5544 -0.1087
  126EMI    H1" 2390   2.281   2.608   3.121  2.1627  0.5687  2.6425
  126EMI    C2" 2391   2.436   2.638   3.262 -0.2396 -0.5849 -0.0851
  126EMI    H2" 2392   2.360   2.646   3.342 -0.9686  0.7769  2.6824
  126EMI    H2" 2393   2.466   2.532   3.248  1.9447 -1.2764 -1.3718
  126EMI    H2" 2394   2.522   2.697   3.269 -2.9530 -1.2899 -3.7128
  127EMI     N1 2395   0.642   2.850   4.595 -0.5038 -0.4375  0.5540
  127EMI     C2 2396   0.614   2.931   4.492 -0.0935 -0.4472 -0.1114
  127EMI     N3 2397   0.685   3.047   4.494 -0.0805 -0.2289 -0.5315
  127EMI     C4 2398   0.762   3.039   4.606 -0.5767 -0.3166  0.0990
  127EMI     C5 2399   0.734   2.927   4.668  0.1629 -0.3899  0.2201
  127EMI     H2 2400   0.550   2.912   4.409  1.7288 -0.7257  0.5539
  127EMI     H4 2401   0.829   3.120   4.639 -1.5985 -0.9640 -0.0913
  127EMI     H5 2402   0.779   2.896   4.757  1.4285  1.2906 -1.6471
  127EMI    C1' 2403   0.683   3.159   4.407 -0.0424 -0.2802  0.2580
  127EMI    H1' 2404   0.788   3.180   4.385  1.0337 -0.6171  3.6288
  127EMI    H1' 2405   0.630   3.144   4.318 -1.3392  0.6472  2.4785
  127EMI    H1' 2406   0.637   3.244   4.464  0.0130  2.7159  2.6780
  127EMI    C1" 2407   0.584   2.728   4.650 -0.1427  0.4457 -0.0316
  127EMI    H1" 2408   0.489   2.712   4.609  2.7184  0.5972 -0.7268
  127EMI    H1" 2409   0.576   2.739   4.755 -0.8706  2.7349  1.7829
  127EMI    C2" 2410   0.678   2.607   4.634  0.0192 -0.5712 -0.3995
  127EMI    H2" 2411   0.705   2.617   4.529 -0.9266  0.1439  1.0819
  127EMI    H2" 2412   0.763   2.618   4.692  0.0560  2.0393 -1.8706
  127EMI    H2" 2413   0.622   2.514   4.656  0.0643 -0.6511  0.5307
  128EMI     N1 2414   3.980   5.384   1.339 -0.4190  0.2062  0.1497
  128EMI     C2 2415   3.992   5.518   1.356 -0.3904 -0.5412  0.7543
  128EMI     N3 2416   4.081   5.561   1.259  0.2379  0.1511  1.2029
  128EMI     C4 2417   4.113   5.451   1.178 -0.4424 -0.5192 -0.9489
  128EMI     C5 2418   4.044   5.348   1.222 -0.1088 -0.6456  0.1420
  128EMI     H2 2419   3.946   5.589   1.425  0.6171  0.0074 -2.6882
  128EMI     H4 2420   4.181   5.452   1.095  1.6221 -2.2797 -1.2458
  128EMI     H5 2421   4.054   5.246   1.182 -2.2337 -1.5406 -0.0470
  128EMI    C1' 2422   4.141   5.692   1.241  0.3182 -0.0520  0.0438
  128EMI    H1' 2423   4.243   5.680   1.275  0.2015  0.1651  2.2050
  128EMI    H1' 2424   4.143   5.719   1.140 -1.0408  0.7408  0.1427
  128EMI    H1' 2425   4.087   5.773   1.298 -1.5013  0.4041  0.0058
  128EMI    C1" 2426   3.916   5.286   1.422  0.4186 -0.2520 -0.0506
  128EMI    H1" 2427   3.987   5.247   1.495  0.7660 -0.5417  2.6241
  128EMI    H1" 2428   3.880   5.205   1.356 -0.2528 -0.9868  1.9359
  128EMI    C2" 2429   3.814   5.333   1.508  0.1132 -0.9477 -0.2068
  128EMI    H2" 2430   3.729   5.372   1.450  0.3380  0.0021 -1.2072
  128EMI    H2" 2431   3.782   5.248   1.573  1.8252  1.0404 -1.0915
  128EMI    H2" 2432   3.863   5.411   1.559  0.6913 -0.1704 -2.7698
  129EMI     N1 2433   3.459   3.871   0.659  0.3541 -0.2662  0.1339
  129EMI     C2 2434   3.415   4.000   0.660  0.3779  0.0154 -0.3475
  129EMI     N3 2435   3.316   4.017   0.570 -0.7635  0.0021 -0.0340
  129EMI     C4 2436   3.298   3.896   0.507 -0.2917  0.2643  0.3950
  129EMI     C5 2437   3.387   3.807   0.558  0.0570 -0.1444 -0.3260
  129EMI     H2 2438   3.445   4.069   0.735  0.0469 -0.6966  0.6202
  129EMI     H4 2439   3.219   3.865   0.442  0.8523 -1.8584  1.2785
  129EMI     H5 2440   3.407   3.697   0.541 -0.8694 -2.7436  0.5991
  129EMI    C1' 2441   3.230   4.133   0.537 -0.6299  0.0575  0.0048
  129EMI    H1' 2442   3.167   4.116   0.449 -2.4366 -2.6171  1.0630
  129EMI    H1' 2443   3.167   4.159   0.629  0.3100  1.5506  0.7843
  129EMI    H1' 2444   3.287   4.222   0.516 -0.0403 -1.4282  0.0668
  129EMI    C1" 2445   3.531   3.794   0.758  0.4080 -0.1880  0.0584
  129EMI    H1" 2446   3.485   3.701   0.761  1.2247  2.8670  0.8200
  129EMI    H1" 2447   3.532   3.839   0.854  1.1186  0.2505  0.9429
  129EMI    C2" 2448   3.676   3.790   0.701 -0.1871  0.8265 -0.1156
  129EMI    H2" 2449   3.684   3.757   0.596 -0.3219 -1.2699 -0.3153
  129EMI    H2" 2450   3.717   3.891   0.711 -2.9898 -1.4948  0.8445
  129EMI    H2" 2451   3.735   3.722   0.773 -1.5393 -0.0951  1.5639
  130EMI     N1 2452   2.339   0.245   4.315 -0.0780 -0.0210 -0.4430
  130EMI     C2 2453   2.425   0.157   4.257  0.1087 -0.1812 -0.2096
  130EMI     N3 2454   2.364   0.043   4.219 -0.0710  0.3856 -0.0506
  130EMI     C4 2455   2.236   0.061   4.253 -0.2956  0.0570 -0.4083
  130EMI     C5 2456   2.214   0.183   4.304 -0.0583  0.7102 -0.0813
  130EMI     H2 2457   2.533   0.177   4.236 -3.1196 -3.8323 -0.1928
  130EMI     H4 2458   2.151  -0.011   4.237  0.4241 -2.7182  2.8249
  130EMI     H5 2459   2.123   0.222   4.346 -0.5591 -0.3326  2.6730
  130EMI    C1' 2460   2.417  -0.069   4.147  0.1735  0.7935 -0.0636
  130EMI    H1' 2461   2.352  -0.156   4.158 -0.5769 -0.4382 -1.3012
  130EMI    H1' 2462   2.408  -0.047   4.041  1.3883 -3.1261 -4.3436
  130EMI    H1' 2463   2.521  -0.095   4.180  1.7099 -0.0097  1.0165
  130EMI    C1" 2464   2.379   0.374   4.369 -0.7740  0.1618 -0.1122
  130EMI    H1" 2465   2.485   0.398   4.358 -0.5403  1.8334  0.0781
  130EMI    H1" 2466   2.361   0.366   4.478 -1.2656 -1.9514 -0.1524
  130EMI    C2" 2467   2.288   0.484   4.312  0.5129 -0.0477 -0.2373
  130EMI    H2" 2468   2.188   0.464   4.340  0.4776 -1.2077  2.3097
  130EMI    H2" 2469   2.307   0.582   4.357 -0.5477 -1.3252  5.0575
  130EMI    H2" 2470   2.289   0.491   4.208 -0.3109 -1.7424 -3.0315
  131EMI     N1 2471   4.913   5.489   5.388 -0.0957 -0.6498 -0.7132
  131EMI     C2 2472   4.947   5.391   5.309 -0.0817 -0.4403 -0.0834
  131EMI     N3 2473   4.857   5.388   5.205  0.5140 -0.3593  0.3591
  131EMI     C4 2474   4.761   5.482   5.229 -0.2914 -0.4300  0.4484
  131EMI     C5 2475   4.797   5.545   5.339  0.4267  0.3478  0.4871
  131EMI     H2 2476   5.039   5.333   5.318 -1.7763 -2.2268 -1.4705
  131EMI     H4 2477   4.685   5.521   5.161  1.0089  2.5177 -1.2862
  131EMI     H5 2478   4.739   5.633   5.380  1.1850  0.7475  0.9859
  131EMI    C1' 2479   4.855   5.324   5.077 -0.3391 -0.3544  0.0847
  131EMI    H1' 2480   4.922   5.239   5.066  1.0159  0.9531 -0.9866
  131EMI    H1' 2481   4.753   5.291   5.051  0.4750  0.2890  0.4895
  131EMI    H1' 2482   4.889   5.385   4.994  0.3681  2.3782 -2.0206
  131EMI    C1" 2483   4.986   5.537   5.507  0.0038  1.0173  0.9222
  131EMI    H1" 2484   4.956   5.642   5.532 -0.2516  0.1029 -2.8064
  131EMI    H1" 2485   5.097   5.529   5.495 -2.1678  0.0853 -0.2597
  131EMI    C2" 2486   4.953   5.449   5.625  0.7942  0.5558 -0.2391
  131EMI    H2" 2487   5.031   5.457   5.705 -2.9504 -0.3506 -0.1726
  131EMI    H2" 2488   4.866   5.486   5.671  1.0608  0.2699 -3.6721
  131EMI    H2" 2489   4.934   5.345   5.599 -3.8778  5.0074 -1.4531
  132EMI     N1 2490   2.649   0.409   5.190  0.3644  0.6708 -0.2076
  132EMI     C2 2491   2.637   0.274   5.208  0.3395  0.8075 -0.0627
  132EMI     N3 2492   2.700   0.235   5.321  0.4121  0.5803 -0.2478
  132EMI     C4 2493   2.757   0.347   5.375 -0.0276  0.2291  0.4132
  132EMI     C5 2494   2.723   0.453   5.297  0.2403 -0.2031 -0.3662
  132EMI     H2 2495   2.581   0.205   5.149 -1.1974  1.4849 -0.3527
  132EMI     H4 2496   2.817   0.351   5.464 -3.5925 -1.9601  0.3665
  132EMI     H5 2497   2.740   0.555   5.326  0.0704 -0.8144  0.5442
  132EMI    C1' 2498   2.728   0.098   5.376  0.0399  0.1965 -0.3118
  132EMI    H1' 2499   2.783   0.103   5.472  0.5835  0.0037  2.3750
  132EMI    H1' 2500   2.631   0.055   5.388 -1.5894  1.5814  0.5723
  132EMI    H1' 2501   2.791   0.033   5.311  1.0728  1.1174 -1.8094
  132EMI    C1" 2502   2.606   0.494   5.077  0.3594  0.9460 -0.0813
  132EMI    H1" 2503   2.660   0.588   5.085  0.9120  2.7079  0.2095
  132EMI    H1" 2504   2.500   0.513   5.083  2.9044 -0.1723 -1.7810
  132EMI    C2" 2505   2.643   0.435   4.940  0.2216 -0.3510  0.9406
  132EMI    H2" 2506   2.624   0.329   4.920  0.1903  2.1720  0.4753
  132EMI    H2" 2507   2.606   0.503   4.865  3.9627  1.1861 -1.3527
  132EMI    H2" 2508   2.754   0.440   4.932 -0.5192 -1.4653  3.0732
  133EMI     N1 2509   6.065   2.177   4.803  1.1841  0.2168 -0.2491
  133EMI     C2 2510   5.954   2.251   4.781 -0.3997  0.2216 -0.2820
  133EMI     N3 2511   5.847   2.182   4.814  0.2319 -0.0850 -0.1027
  133EMI     C4 2512   5.892   2.065   4.871 -0.3915 -0.4791  0.2998
  133EMI     C5 2513   6.028   2.056   4.857  0.3571 -0.4816 -0.5073
  133EMI     H2 2514   5.960   2.348   4.737  2.7056 -2.9252  0.2018
  133EMI     H4 2515   5.823   1.994   4.907  0.7057  1.6946 -0.2715
  133EMI     H5 2516   6.100   1.978   4.886 -0.2858 -4.1742 -1.7573
  133EMI    C1' 2517   5.710   2.219   4.798 -0.0948 -0.2257  0.4676
  133EMI    H1' 2518   5.694   2.290   4.719  0.5306  0.7511  1.1802
  133EMI    H1' 2519   5.645   2.137   4.781 -1.7242 -2.1811  0.4323
  133EMI    H1' 2520   5.667   2.264   4.889 -0.7306  1.4028  0.1169
  133EMI    C1" 2521   6.206   2.225   4.803 -0.2191 -0.2711  0.1079
  133EMI    H1" 2522   6.284   2.144   4.814 -0.1387 -3.0989 -1.7254
  133EMI    H1" 2523   6.221   2.302   4.872  0.7682 -1.4650 -0.4132
  133EMI    C2" 2524   6.256   2.306   4.679 -0.4963 -0.5771 -0.4022
  133EMI    H2" 2525   6.281   2.218   4.616 -0.6059 -2.0520  0.7552
  133EMI    H2" 2526   6.185   2.374   4.634  2.1360  1.0605 -0.6242
  133EMI    H2" 2527   6.350   2.355   4.700  2.3050 -1.7189 -0.5665
  134EMI     N1 2528   1.558   1.419   0.670  0.1378  0.4861  0.0920
  134EMI     C2 2529   1.592   1.427   0.799  0.3119  0.1150 -0.4344
  134EMI     N3 2530   1.622   1.552   0.826 -0.6151 -0.4196  0.2125
  134EMI     C4 2531   1.617   1.621   0.709  0.0749 -0.3700  0.0674
  134EMI     C5 2532   1.580   1.541   0.606  0.1320 -0.1661  0.4180
  134EMI     H2 2533   1.586   1.349   0.875 -0.9776  2.8654  0.3354
  134EMI     H4 2534   1.627   1.734   0.694 -0.8986  0.0724 -1.5503
  134EMI     H5 2535   1.548   1.561   0.498  0.3534  0.4629 -2.1008
  134EMI    C1' 2536   1.644   1.616   0.957 -0.6308 -1.0234  0.7121
  134EMI    H1' 2537   1.653   1.721   0.947 -2.0729  0.8372  0.4504
  134EMI    H1' 2538   1.553   1.594   1.018 -0.0439  1.9332 -2.1237
  134EMI    H1' 2539   1.724   1.572   1.003 -1.3916 -1.6038  3.0066
  134EMI    C1" 2540   1.495   1.300   0.606  0.1181  0.6229 -0.3075
  134EMI    H1" 2541   1.543   1.201   0.640  2.9056 -1.0771  1.0766
  134EMI    H1" 2542   1.495   1.317   0.502 -1.2121  1.5702  1.1426
  134EMI    C2" 2543   1.348   1.301   0.652  0.0609  0.0408 -0.4059
  134EMI    H2" 2544   1.341   1.285   0.758 -0.1081 -2.0011 -0.7583
  134EMI    H2" 2545   1.300   1.391   0.623  1.8870  1.4986  0.4640
  134EMI    H2" 2546   1.297   1.212   0.610  0.2687 -1.4802  3.2011
  135EMI     N1 2547   2.623   3.247   5.069  0.0316 -0.0040 -0.2879
  135EMI     C2 2548   2.715   3.247   5.160 -0.6101  0.6192  0.3655
  135EMI     N3 2549   2.725   3.365   5.218 -0.1582  0.5446  0.3630
  135EMI     C4 2550   2.616   3.438   5.171 -0.4553 -0.2860  0.4237
  135EMI     C5 2551   2.561   3.373   5.068  0.7631 -0.2316  0.2465
  135EMI     H2 2552   2.774   3.149   5.166 -0.0596 -0.7022 -0.9895
  135EMI     H4 2553   2.585   3.536   5.199 -1.6535  2.6993 -0.9333
  135EMI     H5 2554   2.489   3.404   4.996 -0.4596  0.1760 -1.1769
  135EMI    C1' 2555   2.797   3.409   5.339 -0.3210  0.7347  0.1724
  135EMI    H1' 2556   2.764   3.504   5.374  0.1293 -2.8804 -4.7732
  135EMI    H1' 2557   2.802   3.324   5.412 -1.4009 -0.0362  1.9233
  135EMI    H1' 2558   2.897   3.417   5.317 -0.2341 -1.3442 -0.0911
  135EMI    C1" 2559   2.588   3.154   4.963 -0.6132 -0.3672  0.5467
  135EMI    H1" 2560   2.640   3.058   4.976 -0.8639  2.7419 -2.7886
  135EMI    H1" 2561   2.621   3.183   4.858 -0.6233  3.0431 -2.6545
  135EMI    C2" 2562   2.441   3.111   4.960 -0.0051  0.8631  0.3252
  135EMI    H2" 2563   2.380   3.199   4.946  2.1035 -0.0300  0.1047
  135EMI    H2" 2564   2.430   3.042   4.877  1.3197  0.6591 -1.5044
  135EMI    H2" 2565   2.410   3.070   5.054 -0.3375 -0.1501  1.5781
  136EMI     N1 2566   6.206   4.255   5.496 -0.3328  0.3525  0.2040
  136EMI     C2 2567   6.117   4.267   5.397 -1.1375 -0.2367 -0.2479
  136EMI     N3 2568   6.102   4.397   5.365  0.2600 -0.2288  0.3333
  136EMI     C4 2569   6.191   4.468   5.448  0.2923  0.4216 -0.2266
  136EMI     C5 2570   6.256   4.375   5.524  0.2859 -0.1255  0.3052
  136EMI     H2 2571   6.066   4.177   5.367  2.2300 -0.4823 -0.2408
  136EMI     H4 2572   6.215   4.574   5.454  1.5352  0.9088 -1.2025
  136EMI     H5 2573   6.342   4.390   5.597  1.5586 -0.9018  4.1649
  136EMI    C1' 2574   6.029   4.455   5.258  0.4913 -0.0561  0.5194
  136EMI    H1' 2575   5.967   4.377   5.216  1.1027 -0.3067  0.9682
  136EMI    H1' 2576   5.961   4.532   5.295 -1.1617 -1.4920  1.0620
  136EMI    H1' 2577   6.091   4.502   5.187 -2.5557 -0.4933  2.3127
  136EMI    C1" 2578   6.255   4.133   5.555 -0.1560  0.1543 -0.7372
  136EMI    H1" 2579   6.364   4.125   5.561 -2.1865 -3.8534  0.0857
  136EMI    H1" 2580   6.206   4.047   5.498 -1.5143  0.1636 -1.7318
  136EMI    C2" 2581   6.216   4.120   5.700 -0.0363  0.1243 -0.3717
  136EMI    H2" 2582   6.108   4.111   5.699  1.7906 -3.0692 -0.7954
  136EMI    H2" 2583   6.262   4.031   5.747  0.5072  0.6084 -0.3884
  136EMI    H2" 2584   6.257   4.196   5.760 -1.0235 -1.0429 -1.9278
  137EMI     N1 2585   5.774   4.577   3.546  0.4040 -0.1460 -0.5641
  137EMI     C2 2586   5.751   4.559   3.680  0.2164  0.1936 -0.1216
  137EMI     N3 2587   5.646   4.628   3.714 -0.1327 -0.4775 -0.2690
  137EMI     C4 2588   5.609   4.700   3.605  0.6053 -0.5716  0.9369
  137EMI     C5 2589   5.682   4.665   3.498  0.6447 -0.0933 -0.4325
  137EMI     H2 2590   5.809   4.490   3.738 -1.6052  0.9922 -1.4094
  137EMI     H4 2591   5.532   4.780   3.596 -0.5314  0.0168 -1.8558
  137EMI     H5 2592   5.672   4.702   3.405 -0.8550  0.2352  0.6576
  137EMI    C1' 2593   5.570   4.646   3.839  1.4269 -0.6434 -0.1476
  137EMI    H1' 2594   5.481   4.696   3.811 -0.4954  1.6545  1.9145
  137EMI    H1' 2595   5.555   4.551   3.879 -1.2928  0.7853 -2.1675
  137EMI    H1' 2596   5.634   4.703   3.911  0.6684  0.1249 -1.0974
  137EMI    C1" 2597   5.870   4.517   3.460  0.4622  0.5281  0.2543
  137EMI    H1" 2598   5.853   4.537   3.351 -1.4647 -0.3232 -0.9004
  137EMI    H1" 2599   5.878   4.405   3.470  1.5532 -3.3718 -1.7113
  137EMI    C2" 2600   6.006   4.573   3.497  0.0214  0.7130  0.4007
  137EMI    H2" 2601   6.079   4.533   3.426 -2.2673  1.6293  0.7327
  137EMI    H2" 2602   6.005   4.686   3.484 -1.6516  1.9117  0.7593
  137EMI    H2" 2603   6.044   4.549   3.595  3.3697 -0.7488  0.4354
  138EMI     N1 2604   4.633   2.053   5.636 -0.2000  0.0280  0.2369
  138EMI     C2 2605   4.632   2.035   5.504 -0.1108  0.4689  0.0927
  138EMI     N3 2606   4.579   1.914   5.471 -0.6335  0.0338  0.0051
  138EMI     C4 2607   4.544   1.852   5.594 -0.3219 -0.0566 -0.0933
  138EMI     C5 2608   4.579   1.943   5.694 -0.6760  0.5394 -0.2262
  138EMI     H2 2609   4.669   2.102   5.429  1.0125 -0.0777  2.3791
  138EMI     H4 2610   4.506   1.753   5.613 -0.0621 -2.6540 -0.1144
  138EMI     H5 2611   4.559   1.919   5.802  0.0630 -0.7565  1.2684
  138EMI    C1' 2612   4.560   1.852   5.335 -0.2436 -0.0345 -0.3028
  138EMI    H1' 2613   4.520   1.927   5.266  0.4292 -1.0184  1.1831
  138EMI    H1' 2614   4.652   1.816   5.293 -1.1865 -3.6593 -1.5062
  138EMI    H1' 2615   4.491   1.769   5.337  0.8362  0.7590 -1.3275
  138EMI    C1" 2616   4.688   2.166   5.713 -0.2085 -0.0186  0.2485
  138EMI    H1" 2617   4.746   2.234   5.642 -2.2447 -0.2610  1.2847
  138EMI    H1" 2618   4.756   2.128   5.790 -0.3650  1.8865 -0.0490
  138EMI    C2" 2619   4.581   2.254   5.765  0.3019  0.3025  0.1148
  138EMI    H2" 2620   4.623   2.340   5.819 -1.2989  0.2655 -1.2259
  138EMI    H2" 2621   4.534   2.293   5.677  1.8961 -0.1965  1.0096
  138EMI    H2" 2622   4.513   2.206   5.841  0.1147  1.0852 -1.2315
  139EMI     N1 2623   0.192   4.691   5.775 -0.3181  0.1112  0.2211
  139EMI     C2 2624   0.309   4.621   5.785 -0.2880  0.2393  0.4507
  139EMI     N3 2625   0.286   4.518   5.861  0.4651  0.4538 -0.2863
  139EMI     C4 2626   0.156   4.515   5.898  0.6012 -0.6396  0.0985
  139EMI     C5 2627   0.094   4.616   5.836  0.0364 -0.2256 -1.1913
  139EMI     H2 2628   0.395   4.665   5.732  0.4181  0.3997  0.2296
  139EMI     H4 2629   0.124   4.444   5.966  1.2744  3.4054 -0.6477
  139EMI     H5 2630  -0.011   4.636   5.861 -1.6488  0.9993  0.4211
  139EMI    C1' 2631   0.380   4.418   5.901 -0.9454  0.7500  0.0511
  139EMI    H1' 2632   0.477   4.443   5.851 -1.6228 -0.1307 -1.5377
  139EMI    H1' 2633   0.408   4.430   6.007  2.1627  2.0486  0.2308
  139EMI    H1' 2634   0.352   4.312   5.871  1.3503 -1.2579  0.8616
  139EMI    C1" 2635   0.163   4.806   5.685 -0.6835  0.0597  0.2194
  139EMI    H1" 2636   0.230   4.889   5.710  2.4216 -0.8364  2.9185
  139EMI    H1" 2637   0.060   4.837   5.688  1.0782 -2.0747  1.3433
  139EMI    C2" 2638   0.176   4.776   5.531  0.1545  1.0604  0.2637
  139EMI    H2" 2639   0.095   4.711   5.488 -1.5147 -1.5734 -1.3923
  139EMI    H2" 2640   0.186   4.869   5.486  1.3490 -0.1131  0.6917
  139EMI    H2" 2641   0.268   4.726   5.502  0.2500 -0.8550  0.0848
  140EMI     N1 2642   5.773   2.825   5.243 -0.9860  0.1473 -0.2740
  140EMI     C2 2643   5.870   2.900   5.180  0.4109  1.2545  0.2492
  140EMI     N3 2644   5.808   2.989   5.104 -0.3206  0.2425 -1.2593
  140EMI     C4 2645   5.674   2.978   5.123  0.1005 -0.4268  0.1757
  140EMI     C5 2646   5.655   2.882   5.214  0.0134 -0.1997  0.3325
  140EMI     H2 2647   5.977   2.902   5.189  1.0072  1.2140 -2.0249
  140EMI     H4 2648   5.602   3.047   5.075  2.0286 -0.1053 -3.2416
  140EMI     H5 2649   5.557   2.857   5.255  1.8027 -1.4625 -0.2968
  140EMI    C1' 2650   5.851   3.093   5.008  0.2914  0.5220 -0.7512
  140EMI    H1' 2651   5.775   3.096   4.935  0.3277 -1.5549  2.2022
  140EMI    H1' 2652   5.863   3.183   5.061 -2.2040  1.0222 -0.4250
  140EMI    H1' 2653   5.942   3.064   4.955  1.1593 -2.4323  1.1093
  140EMI    C1" 2654   5.787   2.714   5.343 -0.4662  0.6430  0.6393
  140EMI    H1" 2655   5.687   2.672   5.370 -1.3942 -3.0180 -1.0156
  140EMI    H1" 2656   5.844   2.746   5.431 -1.2656  0.3122  0.6849
  140EMI    C2" 2657   5.865   2.602   5.278  0.2710  0.4068  0.4971
  140EMI    H2" 2658   5.971   2.627   5.267 -1.9903 -1.6010 -1.6176
  140EMI    H2" 2659   5.855   2.517   5.345 -1.4510 -0.7091  2.1836
  140EMI    H2" 2660   5.824   2.567   5.178 -0.6075  0.8079  1.8221
  141EMI     N1 2661   0.444   3.987   2.115 -0.5768  0.2961 -0.4401
  141EMI     C2 2662   0.410   3.980   2.244 -0.1761 -0.8627  0.5982
  141EMI     N3 2663   0.517   4.029   2.316  0.1761  0.2112 -0.2510
  141EMI     C4 2664   0.620   4.061   2.232  0.0533 -0.0187  0.9738
  141EMI     C5 2665   0.577   4.025   2.107 -0.0193  0.0408 -0.8538
  141EMI     H2 2666   0.317   3.945   2.275  1.1687  0.6318 -0.4156
  141EMI     H4 2667   0.720   4.077   2.259 -0.0528  0.3152 -1.2757
  141EMI     H5 2668   0.640   4.018   2.012  2.2249  0.9853 -1.7364
  141EMI    C1' 2669   0.535   4.020   2.462 -0.2455  0.1859  0.4300
  141EMI    H1' 2670   0.631   4.064   2.489 -1.7179  1.9337 -2.0284
  141EMI    H1' 2671   0.456   4.080   2.504 -0.6394  1.0142 -0.0460
  141EMI    H1' 2672   0.516   3.915   2.495  2.5910 -1.0206 -1.0681
  141EMI    C1" 2673   0.360   3.957   1.997 -0.7796  0.4368 -0.3363
  141EMI    H1" 2674   0.250   3.953   2.022 -1.1435  0.4336  1.0825
  141EMI    H1" 2675   0.388   3.862   1.954 -2.0246 -0.6063  3.4297
  141EMI    C2" 2676   0.365   4.059   1.888 -0.6277  0.1183 -0.5784
  141EMI    H2" 2677   0.470   4.051   1.845 -0.3681  2.4060 -0.2513
  141EMI    H2" 2678   0.291   4.036   1.811 -0.7675 -0.8574 -0.4158
  141EMI    H2" 2679   0.345   4.155   1.935 -0.0225  1.7216 -2.6522
  142EMI     N1 2680   1.550   4.640   4.873  0.2918  0.3958 -0.5189
  142EMI     C2 2681   1.455   4.721   4.825 -0.3576 -0.3678 -0.3609
  142EMI     N3 2682   1.386   4.664   4.723  0.2125  0.5711  0.0769
  142EMI     C4 2683   1.439   4.538   4.713 -0.1099 -0.0705  0.1359
  142EMI     C5 2684   1.541   4.522   4.808  0.7594 -0.9398  0.1486
  142EMI     H2 2685   1.437   4.820   4.862  1.5119  0.9356  1.0255
  142EMI     H4 2686   1.407   4.463   4.642  1.3040 -2.4899 -1.6268
  142EMI     H5 2687   1.605   4.434   4.829  0.8296  2.2360 -1.1051
  142EMI    C1' 2688   1.257   4.699   4.654  0.0110 -0.1430  0.3063
  142EMI    H1' 2689   1.231   4.801   4.685 -0.8450 -0.2125 -0.4895
  142EMI    H1' 2690   1.280   4.709   4.548 -2.6289  0.3622 -0.4561
  142EMI    H1' 2691   1.179   4.621   4.665  0.1330 -2.0927 -0.6369
  142EMI    C1" 2692   1.655   4.652   4.974 -0.3036  0.5618 -0.3275
  142EMI    H1" 2693   1.759   4.616   4.942  0.4258 -0.9382  1.8653
  142EMI    H1" 2694   1.624   4.589   5.063 -0.2378 -1.4867 -1.8712
  142EMI    C2" 2695   1.672   4.795   5.023 -0.4673 -0.3588 -0.6195
  142EMI    H2" 2696   1.740   4.801   5.112 -0.8619 -2.3728  0.3700
  142EMI    H2" 2697   1.723   4.854   4.941  0.1621  0.6923  2.1359
  142EMI    H2" 2698   1.574   4.838   5.047  0.1680  2.9101  3.0374
  143EMI     N1 2699   5.914   2.601   0.707 -0.1676 -0.2911  0.5434
  143EMI     C2 2700   6.046   2.569   0.700  0.3637  0.0591 -0.9733
  143EMI     N3 2701   6.093   2.558   0.821  0.3286 -0.1892  0.6656
  143EMI     C4 2702   5.996   2.593   0.912  0.4348 -0.1166 -0.1912
  143EMI     C5 2703   5.882   2.611   0.842 -0.3653 -0.0259  0.0718
  143EMI     H2 2704   6.095   2.543   0.606 -0.6691 -0.4292  0.0252
  143EMI     H4 2705   6.016   2.595   1.022 -0.1032  1.2393  1.5323
  143EMI     H5 2706   5.787   2.643   0.878 -0.9365 -2.2970  0.3308
  143EMI    C1' 2707   6.228   2.525   0.877  0.4930  0.3923  0.1558
  143EMI    H1' 2708   6.290   2.613   0.865  2.3075 -2.7774  2.3576
  143EMI    H1' 2709   6.219   2.500   0.983 -1.4172  0.1486  1.9514
  143EMI    H1' 2710   6.273   2.449   0.816  0.0831  2.8810 -0.0280
  143EMI    C1" 2711   5.811   2.629   0.605 -0.3574 -0.2779 -0.4504
  143EMI    H1" 2712   5.822   2.736   0.560 -1.3187  2.8217 -1.1728
  143EMI    H1" 2713   5.715   2.628   0.653  0.8041 -1.0419  1.4813
  143EMI    C2" 2714   5.811   2.524   0.491 -0.1780 -0.1404 -0.6353
  143EMI    H2" 2715   5.909   2.492   0.457  0.9981  1.4342  0.1161
  143EMI    H2" 2716   5.755   2.442   0.529  0.6411  0.2275 -0.3610
  143EMI    H2" 2717   5.742   2.560   0.417 -0.4893 -1.8908  1.8321
  144EMI     N1 2718   2.055   0.858   2.707  0.6722 -0.0778  0.1302
  144EMI     C2 2719   1.973   0.960   2.718  0.4078 -0.2936 -0.1266
  144EMI     N3 2720   1.865   0.915   2.790 -0.1579  0.3990  0.3092
  144EMI     C4 2721   1.884   0.780   2.810 -0.4280 -0.6394 -0.1811
  144EMI     C5 2722   2.003   0.747   2.765 -0.0028 -0.0405 -0.7960
  144EMI     H2 2723   1.995   1.063   2.692 -2.9323 -0.6557 -0.0636
  144EMI     H4 2724   1.818   0.713   2.863  0.6660 -3.2534  0.6883
  144EMI     H5 2725   2.054   0.656   2.762 -2.0381  0.5825  1.1844
  144EMI    C1' 2726   1.741   0.983   2.824 -0.4207  1.0606  0.2165
  144EMI    H1' 2727   1.700   1.023   2.729 -1.5648  2.0173 -1.3689
  144EMI    H1' 2728   1.675   0.906   2.854  0.9552  2.6448  1.6204
  144EMI    H1' 2729   1.768   1.063   2.891  2.0252 -0.8808 -0.6321
  144EMI    C1" 2730   2.192   0.864   2.654 -0.1612 -0.2122 -0.2959
  144EMI    H1" 2731   2.255   0.802   2.711  1.5362  1.9009 -0.0740
  144EMI    H1" 2732   2.233   0.959   2.680  1.1225  1.5899  0.1022
  144EMI    C2" 2733   2.202   0.824   2.506 -0.4273 -0.1204  0.1403
  144EMI    H2" 2734   2.156   0.905   2.441  0.7220  2.2439 -0.5488
  144EMI    H2" 2735   2.309   0.830   2.491 -0.6036  0.3606  0.2194
  144EMI    H2" 2736   2.161   0.727   2.491 -0.6361  0.4679  2.6235
  145EMI     N1 2737   1.252   4.879   4.155 -0.4696  0.0950  0.0588
  145EMI     C2 2738   1.172   4.922   4.254 -0.6372  0.2634  0.2133
  145EMI     N3 2739   1.244   4.967   4.354  0.1539  0.0150 -0.6244
  145EMI     C4 2740   1.374   4.938   4.327  0.2925  0.1688 -0.1486
  145EMI     C5 2741   1.383   4.882   4.204 -0.5175  1.2904 -0.3464
  145EMI     H2 2742   1.068   4.944   4.246  0.2464 -0.3796  2.5163
  145EMI     H4 2743   1.458   4.944   4.395 -0.9166  0.2914 -1.4887
  145EMI     H5 2744   1.476   4.854   4.159  1.4884  0.7633  4.1463
  145EMI    C1' 2745   1.188   5.009   4.483  0.0541 -0.2590  0.8961
  145EMI    H1' 2746   1.272   4.971   4.552  0.0273 -1.0053  0.7678
  145EMI    H1' 2747   1.175   5.123   4.490  2.3326  1.9350 -0.5513
  145EMI    H1' 2748   1.090   4.960   4.486  1.7013 -3.1077 -3.3417
  145EMI    C1" 2749   1.207   4.829   4.020  0.1448 -0.3252 -0.1327
  145EMI    H1" 2750   1.128   4.887   3.993  1.9767  1.1433  1.1013
  145EMI    H1" 2751   1.164   4.731   4.038  0.2980 -1.1450 -0.5982
  145EMI    C2" 2752   1.305   4.846   3.905 -0.7079  0.1250  0.4976
  145EMI    H2" 2753   1.388   4.772   3.913 -0.8871 -0.5334 -0.5956
  145EMI    H2" 2754   1.257   4.831   3.813  2.3046 -0.3310  2.2842
  145EMI    H2" 2755   1.346   4.948   3.903 -0.3826  1.2683 -2.4916
  146EMI     N1 2756   3.680   2.611   4.357  0.5742  0.0966  0.1241
  146EMI     C2 2757   3.626   2.529   4.267 -0.0842 -0.7068  0.0169
  146EMI     N3 2758   3.528   2.596   4.193  0.0495  0.5103  0.1750
  146EMI     C4 2759   3.536   2.727   4.239  0.7689 -0.2123  0.6499
  146EMI     C5 2760   3.631   2.738   4.330 -0.9663 -0.7335  0.1627
  146EMI     H2 2761   3.652   2.426   4.260 -0.2537  2.0584  2.3061
  146EMI     H4 2762   3.467   2.807   4.201 -1.3132  0.7873 -1.2989
  146EMI     H5 2763   3.672   2.828   4.375  0.1165  0.9107  0.5588
  146EMI    C1' 2764   3.442   2.545   4.090 -0.0527  0.4977 -0.7155
  146EMI    H1' 2765   3.484   2.548   3.987  1.7275  3.3831 -1.2237
  146EMI    H1' 2766   3.414   2.443   4.111  1.2568  1.2701 -0.3610
  146EMI    H1' 2767   3.354   2.606   4.097  0.6349 -2.9663  0.9744
  146EMI    C1" 2768   3.782   2.588   4.465  0.5559  0.2970  0.3341
  146EMI    H1" 2769   3.856   2.665   4.458  2.4762 -1.3779  0.1061
  146EMI    H1" 2770   3.842   2.494   4.454  3.1080  1.0922  0.4748
  146EMI    C2" 2771   3.714   2.596   4.604  0.2443 -0.8035  0.7105
  146EMI    H2" 2772   3.795   2.606   4.677  0.8337 -1.2154  0.8661
  146EMI    H2" 2773   3.640   2.680   4.609  1.4597 -1.6755  1.5196
  146EMI    H2" 2774   3.662   2.507   4.622  1.2906 -0.1349  2.5958
  147EMI     N1 2775   6.007   5.836   0.527 -0.9140 -0.0882 -0.3126
  147EMI     C2 2776   6.125   5.902   0.555 -0.4254 -0.5454  0.1931
  147EMI     N3 2777   6.106   5.972   0.668  0.1159 -0.4442  0.4578
  147EMI     C4 2778   5.968   5.968   0.693 -0.8557  0.4221  0.0509
  147EMI     C5 2779   5.908   5.882   0.612 -0.2989 -0.2970 -0.4486
  147EMI     H2 2780   6.230   5.893   0.521 -0.4762  1.8537  2.0789
  147EMI     H4 2781   5.919   6.019   0.773 -3.5135  2.4286 -1.5262
  147EMI     H5 2782   5.800   5.865   0.604  2.5347  2.8534 -0.1984
  147EMI    C1' 2783   6.199   6.046   0.757  0.2906  0.2867  0.8682
  147EMI    H1' 2784   6.289   5.990   0.744  1.4731 -0.0299  0.0397
  147EMI    H1' 2785   6.200   6.147   0.721  3.2349  0.8428 -1.4909
  147EMI    H1' 2786   6.175   6.043   0.862  2.3748  1.2401 -1.5691
  147EMI    C1" 2787   5.974   5.725   0.439 -0.0934  0.1700 -0.9139
  147EMI    H1" 2788   5.868   5.710   0.454 -1.0528  1.1006 -3.1957
  147EMI    H1" 2789   6.044   5.649   0.481 -0.2800 -1.7077 -1.1039
  147EMI    C2" 2790   6.006   5.749   0.296  0.2782  0.4288  0.2423
  147EMI    H2" 2791   5.975   5.676   0.228  0.1261  0.0368 -0.4294
  147EMI    H2" 2792   5.953   5.837   0.264 -0.3492  1.4213 -1.4154
  147EMI    H2" 2793   6.115   5.765   0.290 -0.3778  2.3096  0.4143
  148EMI     N1 2794   3.039   4.902   0.664  0.2206  0.2120  0.1270
  148EMI     C2 2795   2.931   4.858   0.733 -0.3071 -0.4124  0.1721
  148EMI     N3 2796   2.917   4.726   0.707  0.4304  0.1949  0.3399
  148EMI     C4 2797   3.009   4.689   0.615 -0.6381 -0.1840  0.3722
  148EMI     C5 2798   3.079   4.800   0.587 -0.0599 -0.2925  0.1901
  148EMI     H2 2799   2.875   4.907   0.808  0.7680 -0.2367  1.3934
  148EMI     H4 2800   3.030   4.585   0.567  2.5297 -1.3238 -1.2966
  148EMI     H5 2801   3.165   4.812   0.517  2.2422  1.3860  0.0164
  148EMI    C1' 2802   2.826   4.629   0.761  0.1526 -0.0813 -0.2392
  148EMI    H1' 2803   2.851   4.625   0.869  1.4277 -0.2323  0.5252
  148EMI    H1' 2804   2.723   4.671   0.753  2.6597  3.1213  1.4551
  148EMI    H1' 2805   2.829   4.527   0.716 -1.4818  0.9577  2.7400
  148EMI    C1" 2806   3.117   5.032   0.676  0.0163 -0.3899 -0.8286
  148EMI    H1" 2807   3.054   5.117   0.688 -0.1508 -2.0910 -1.7598
  148EMI    H1" 2808   3.175   5.045   0.579 -0.4331 -0.6644 -0.2692
  148EMI    C2" 2809   3.229   5.020   0.783 -0.2383 -0.0296 -0.0129
  148EMI    H2" 2810   3.299   4.940   0.758  0.1368 -1.2277  0.7434
  148EMI    H2" 2811   3.274   5.115   0.786  1.8355  0.1853  1.4179
  148EMI    H2" 2812   3.180   5.004   0.882 -0.6551 -0.7820  2.2579
  149EMI     N1 2813   1.853   2.894   5.889  0.1911  0.0551  0.5065
  149EMI     C2 2814   1.778   3.007   5.906  0.0654 -0.3005 -0.2547
  149EMI     N3 2815   1.679   3.012   5.811 -0.4410  0.5446 -0.2156
  149EMI     C4 2816   1.696   2.903   5.733 -0.0179 -0.4856  0.8559
  149EMI     C5 2817   1.796   2.827   5.784  0.2766 -0.1503 -0.8988
  149EMI     H2 2818   1.789   3.083   5.987 -0.7935  0.3534 -1.0371
  149EMI     H4 2819   1.634   2.882   5.649 -0.8052 -1.1503  1.4727
  149EMI     H5 2820   1.828   2.734   5.745 -0.7119  0.4078 -0.0269
  149EMI    C1' 2821   1.558   3.101   5.791 -0.1828 -0.6628 -0.6416
  149EMI    H1' 2822   1.471   3.044   5.746 -2.0358  1.3481  0.9757
  149EMI    H1' 2823   1.520   3.154   5.883  0.5699  3.4892 -0.5004
  149EMI    H1' 2824   1.580   3.175   5.724  0.7493 -1.1825  1.1871
  149EMI    C1" 2825   1.967   2.827   5.953  0.3176 -0.5876 -0.0998
  149EMI    H1" 2826   2.051   2.897   5.946 -0.2767  0.3217 -0.7893
  149EMI    H1" 2827   1.995   2.736   5.896  2.0974 -2.0288  1.4816
  149EMI    C2" 2828   1.930   2.794   6.103  0.2271 -0.4004 -0.1576
  149EMI    H2" 2829   1.840   2.731   6.108 -2.2578  3.4233  0.2012
  149EMI    H2" 2830   2.007   2.739   6.148  0.2243 -1.1549 -1.2433
  149EMI    H2" 2831   1.920   2.892   6.152  0.6436 -1.0367 -3.4176
  150EMI     N1 2832   1.890   0.011   5.146  0.1592  0.2807 -0.8118
  150EMI     C2 2833   1.801   0.080   5.219 -0.4792  0.0624  0.3749
  150EMI     N3 2834   1.825   0.216   5.204 -0.2069  0.0748 -0.4559
  150EMI     C4 2835   1.931   0.226   5.127  0.2797 -0.1041 -0.0297
  150EMI     C5 2836   1.968   0.105   5.089  1.1815 -0.4727  0.1036
  150EMI     H2 2837   1.726   0.045   5.287 -2.6214  1.7211  2.1702
  150EMI     H4 2838   1.976   0.321   5.104  1.9341 -0.7747 -1.4820
  150EMI     H5 2839   2.062   0.080   5.040  0.0854 -1.6577  1.3264
  150EMI    C1' 2840   1.728   0.318   5.253 -0.0571  0.2904 -0.5765
  150EMI    H1' 2841   1.692   0.303   5.351  5.0342 -0.4837 -0.0460
  150EMI    H1' 2842   1.781   0.411   5.275  0.0123 -0.9754 -1.4079
  150EMI    H1' 2843   1.648   0.331   5.183  1.2559 -0.7232  0.3942
  150EMI    C1" 2844   1.920  -0.135   5.132 -1.0512  0.0152  0.7697
  150EMI    H1" 2845   1.944  -0.177   5.224 -2.2812  0.8447 -1.9629
  150EMI    H1" 2846   2.003  -0.155   5.067 -1.1655 -0.1727 -0.4422
  150EMI    C2" 2847   1.798  -0.196   5.060  0.1983  0.5262 -0.3483
  150EMI    H2" 2848   1.808  -0.297   5.019  0.7461 -0.5016 -2.0341
  150EMI    H2" 2849   1.724  -0.202   5.143  1.1830  1.5298  0.6511
  150EMI    H2" 2850   1.750  -0.141   4.975  0.7047  0.1486  0.0393
  151EMI     N1 2851   0.885   4.818   5.379  0.0852 -0.4688 -0.0475
  151EMI     C2 2852   0.840   4.701   5.429 -0.7226  0.0233 -0.0994
  151EMI     N3 2853   0.941   4.615   5.425 -0.5345 -0.9752 -0.6782
  151EMI     C4 2854   1.055   4.689   5.409  0.1269  0.3827 -1.1968
  151EMI     C5 2855   1.019   4.808   5.371 -0.4466  0.0027  0.2410
  151EMI     H2 2856   0.743   4.673   5.439 -0.3571  0.0449 -0.3772
  151EMI     H4 2857   1.152   4.651   5.414 -1.3236  0.3371  0.9881
  151EMI     H5 2858   1.090   4.880   5.338  1.8198 -0.4875  0.3630
  151EMI    C1' 2859   0.944   4.472   5.457 -0.0495  0.7743 -0.0343
  151EMI    H1' 2860   0.911   4.458   5.558  2.2504  1.0904  0.4237
  151EMI    H1' 2861   0.875   4.418   5.392 -1.5291 -0.6009  3.6423
  151EMI    H1' 2862   1.048   4.442   5.463 -1.5863  0.1087  1.7602
  151EMI    C1" 2863   0.809   4.942   5.350 -0.1071  0.2343  0.2645
  151EMI    H1" 2864   0.861   5.030   5.400 -1.7660  0.2878  3.3077
  151EMI    H1" 2865   0.706   4.930   5.393 -2.1086 -0.4116 -1.4392
  151EMI    C2" 2866   0.798   4.969   5.200  0.7671 -0.6996 -0.0401
  151EMI    H2" 2867   0.891   5.012   5.170 -1.6896 -2.0456  0.3167
  151EMI    H2" 2868   0.770   4.880   5.153  1.6766  0.7849  1.0358
  151EMI    H2" 2869   0.721   5.044   5.188 -1.3744 -1.2742 -0.5791
  152EMI     N1 2870   1.889   0.873   1.424 -0.1199  0.3236 -0.0905
  152EMI     C2 2871   1.977   0.916   1.511  0.9044  0.2529  0.4308
  152EMI     N3 2872   2.052   1.015   1.460  0.1813 -0.1264 -0.8217
  152EMI     C4 2873   2.008   1.032   1.328  0.6369 -0.8705  0.2626
  152EMI     C5 2874   1.913   0.940   1.305 -0.2044 -0.3319  0.2510
  152EMI     H2 2875   1.994   0.861   1.605 -1.7448  1.0302  0.1347
  152EMI     H4 2876   2.042   1.112   1.261 -0.1097 -4.0170 -1.6336
  152EMI     H5 2877   1.856   0.932   1.213 -0.5580 -2.5436  0.9048
  152EMI    C1' 2878   2.164   1.095   1.524 -0.0904 -0.6421 -0.3171
  152EMI    H1' 2879   2.230   1.032   1.585  0.7736 -1.1598  1.3612
  152EMI    H1' 2880   2.226   1.140   1.447 -0.8259 -1.2720  0.0188
  152EMI    H1' 2881   2.114   1.174   1.584  0.8933  0.4881  1.4488
  152EMI    C1" 2882   1.779   0.775   1.433 -0.5810  0.0215 -1.1667
  152EMI    H1" 2883   1.800   0.706   1.353  0.7770  0.1810 -2.8652
  152EMI    H1" 2884   1.679   0.812   1.418 -0.1790 -0.9245 -0.7588
  152EMI    C2" 2885   1.792   0.703   1.567 -0.1196  0.3806 -0.0765
  152EMI    H2" 2886   1.690   0.667   1.588  0.1741  1.2555  0.9472
  152EMI    H2" 2887   1.863   0.625   1.560  1.0887  2.6791  0.9225
  152EMI    H2" 2888   1.820   0.779   1.645  1.5307 -1.5583 -0.1606
  153EMI     N1 2889   4.783   2.873   0.295  0.2641 -0.4907  0.5187
  153EMI     C2 2890   4.754   2.790   0.397  0.2662  0.0551  0.1381
  153EMI     N3 2891   4.799   2.665   0.375 -0.6615 -0.3907 -0.5314
  153EMI     C4 2892   4.854   2.666   0.251  0.2687 -0.1084  0.1703
  153EMI     C5 2893   4.845   2.791   0.202 -0.4197 -0.0073 -0.5680
  153EMI     H2 2894   4.700   2.807   0.491  0.4303 -2.2017  1.8295
  153EMI     H4 2895   4.888   2.572   0.201 -2.3861  0.0684 -0.9464
  153EMI     H5 2896   4.884   2.830   0.103 -0.8538  3.5720 -0.3781
  153EMI    C1' 2897   4.790   2.535   0.448 -0.5104  0.2663  0.1745
  153EMI    H1' 2898   4.704   2.534   0.511 -0.2630  0.4238 -1.9288
  153EMI    H1' 2899   4.799   2.449   0.384 -0.4432 -0.1656  1.5704
  153EMI    H1' 2900   4.879   2.531   0.506  1.2776 -1.5804 -2.5852
  153EMI    C1" 2901   4.752   3.021   0.269  0.0907 -0.0659  1.0686
  153EMI    H1" 2902   4.846   3.072   0.232  2.2333  1.0922  0.7592
  153EMI    H1" 2903   4.710   3.062   0.362 -1.0578 -0.0037  0.2100
  153EMI    C2" 2904   4.656   3.030   0.153  0.7933  0.2224 -0.2073
  153EMI    H2" 2905   4.594   3.122   0.166  2.1217  0.3961 -0.3341
  153EMI    H2" 2906   4.712   3.038   0.059 -1.2434 -0.5377 -0.1340
  153EMI    H2" 2907   4.610   2.937   0.142  1.0816  0.9944  1.5621
  154EMI     N1 2908   0.181   5.252   2.144  0.2660 -0.1248  0.1680
  154EMI     C2 2909   0.169   5.235   2.271 -0.2788 -0.5144 -1.0997
  154EMI     N3 2910   0.154   5.348   2.341 -0.6804 -0.9031  0.1240
  154EMI     C4 2911   0.169   5.447   2.251 -0.1216  0.2858 -0.2553
  154EMI     C5 2912   0.183   5.391   2.131 -0.3095  0.3341  0.2152
  154EMI     H2 2913   0.172   5.132   2.322 -1.0586  0.0294 -1.6927
  154EMI     H4 2914   0.187   5.550   2.269  2.9862 -0.6950  1.4321
  154EMI     H5 2915   0.197   5.443   2.033 -0.3345 -1.7637  1.8967
  154EMI    C1' 2916   0.097   5.384   2.471 -0.2420 -0.1519  0.1549
  154EMI    H1' 2917  -0.001   5.340   2.483  0.3938 -1.7793  0.4065
  154EMI    H1' 2918   0.154   5.351   2.554 -2.3486 -1.4784 -1.5724
  154EMI    H1' 2919   0.098   5.494   2.478 -0.1038  0.6792  1.4094
  154EMI    C1" 2920   0.195   5.157   2.034 -0.3233  0.2999  0.0526
  154EMI    H1" 2921   0.271   5.096   2.078  3.9202  1.4257  1.2782
  154EMI    H1" 2922   0.223   5.211   1.938  0.4390  0.8483  1.2148
  154EMI    C2" 2923   0.064   5.083   2.003  0.0100  0.2935  0.3857
  154EMI    H2" 2924   0.079   5.029   1.912 -1.6971  0.6914  2.3903
  154EMI    H2" 2925   0.053   5.014   2.085  0.5104 -0.3670 -1.2301
  154EMI    H2" 2926  -0.021   5.148   1.989 -1.3375  0.2123 -1.1855
  155EMI     N1 2927   4.791   3.520   0.187  0.2409  0.1111 -0.6656
  155EMI     C2 2928   4.874   3.526   0.288  0.1411 -0.9716  0.0666
  155EMI     N3 2929   4.957   3.424   0.286  0.1807  0.5183  0.2046
  155EMI     C4 2930   4.924   3.342   0.176 -0.2325 -0.0879 -0.8047
  155EMI     C5 2931   4.826   3.407   0.113 -0.5944 -0.4812 -0.4994
  155EMI     H2 2932   4.883   3.599   0.371  1.5275 -0.1058 -2.2350
  155EMI     H4 2933   4.962   3.250   0.147 -2.4329 -0.4779 -1.7095
  155EMI     H5 2934   4.785   3.361   0.021  0.7703 -1.9889 -0.9086
  155EMI    C1' 2935   5.051   3.381   0.389  0.2511 -0.2455 -0.0110
  155EMI    H1' 2936   5.018   3.394   0.493  0.1334  1.5943  1.0194
  155EMI    H1' 2937   5.092   3.280   0.365  2.1295  2.8115  0.8712
  155EMI    H1' 2938   5.131   3.460   0.385 -1.5477  0.3486 -0.7949
  155EMI    C1" 2939   4.678   3.615   0.164 -0.3986 -0.7216  0.1398
  155EMI    H1" 2940   4.630   3.648   0.256 -1.1322  3.2573  1.4935
  155EMI    H1" 2941   4.607   3.574   0.097 -0.1266  3.3558  0.0634
  155EMI    C2" 2942   4.727   3.744   0.096  0.0518  0.5749  0.4356
  155EMI    H2" 2943   4.646   3.819   0.096  1.3579  0.2689 -0.9142
  155EMI    H2" 2944   4.808   3.780   0.153 -2.2807 -2.5085  0.9036
  155EMI    H2" 2945   4.758   3.725  -0.008  2.1986 -0.8644  1.7222
  156EMI     N1 2946   0.431   0.731   5.864  0.7726  0.1239  0.6300
  156EMI     C2 2947   0.526   0.636   5.852 -0.4199 -0.0045 -0.4108
  156EMI     N3 2948   0.540   0.575   5.968  0.2502 -0.7273 -0.0763
  156EMI     C4 2949   0.453   0.640   6.058 -0.3763  0.2654  0.0779
  156EMI     C5 2950   0.381   0.734   5.991 -0.7828 -1.0444  0.3725
  156EMI     H2 2951   0.586   0.627   5.761  1.8615  2.3890 -1.6780
  156EMI     H4 2952   0.455   0.639   6.163 -0.9617  0.9413 -1.6450
  156EMI     H5 2953   0.319   0.812   6.036 -1.5860  0.3330 -1.2826
  156EMI    C1' 2954   0.630   0.462   6.011  0.5157 -0.1112  0.4069
  156EMI    H1' 2955   0.711   0.500   6.072  1.6247  0.4558 -0.5641
  156EMI    H1' 2956   0.572   0.400   6.070  1.1604  1.0124 -2.6339
  156EMI    H1' 2957   0.673   0.408   5.923  0.3324 -0.9959  0.0073
  156EMI    C1" 2958   0.376   0.817   5.754  0.6911 -0.4495  0.2891
  156EMI    H1" 2959   0.463   0.825   5.692 -0.6555  1.1428 -0.4873
  156EMI    H1" 2960   0.348   0.918   5.798 -1.1115 -1.8569  3.0289
  156EMI    C2" 2961   0.266   0.751   5.672  0.2436  0.2873 -0.0945
  156EMI    H2" 2962   0.285   0.648   5.660 -1.3453  1.8929  0.0166
  156EMI    H2" 2963   0.166   0.767   5.719  0.7654  1.5882  2.3316
  156EMI    H2" 2964   0.262   0.793   5.574 -0.6451  0.1817 -2.6817
  157EMI     N1 2965   5.196   3.642   0.047 -0.0021 -0.1407  0.5440
  157EMI     C2 2966   5.293   3.715   0.106 -0.2261  0.2341  0.0738
  157EMI     N3 2967   5.243   3.841   0.118  0.3418  0.2887  0.2294
  157EMI     C4 2968   5.122   3.845   0.046 -0.9822  0.7559  0.3073
  157EMI     C5 2969   5.088   3.723   0.006 -0.7327 -0.1008 -0.1211
  157EMI     H2 2970   5.388   3.680   0.146 -0.0133 -1.3192 -0.8675
  157EMI     H4 2971   5.069   3.932   0.021 -1.0393 -0.0389  0.3363
  157EMI     H5 2972   5.007   3.707  -0.062  1.0759  0.1129 -0.0186
  157EMI    C1' 2973   5.304   3.971   0.157  0.0450  0.5128 -0.4760
  157EMI    H1' 2974   5.263   4.052   0.091 -0.7403 -0.0368  2.1018
  157EMI    H1' 2975   5.276   3.985   0.262 -1.2654 -0.9123  2.5679
  157EMI    H1' 2976   5.417   3.975   0.144 -3.0177  0.3454 -0.4832
  157EMI    C1" 2977   5.194   3.495   0.019  0.0344  0.3431  0.1036
  157EMI    H1" 2978   5.140   3.485  -0.080  0.5620 -0.4758 -2.5384
  157EMI    H1" 2979   5.132   3.446   0.093 -1.1204  1.0171 -1.4257
  157EMI    C2" 2980   5.333   3.431   0.004 -0.6009 -0.5669  0.2316
  157EMI    H2" 2981   5.352   3.379   0.094 -0.1399  0.1450 -0.3553
  157EMI    H2" 2982   5.329   3.354  -0.079 -0.6611  0.8808 -0.2009
  157EMI    H2" 2983   5.409   3.501  -0.025 -0.7739 -3.3753 -2.9750
  158EMI     N1 2984   4.990   5.708   5.959 -0.0515 -0.6157 -0.1238
  158EMI     C2 2985   5.018   5.817   5.889 -0.5158 -0.5313  0.2395
  158EMI     N3 2986   4.918   5.871   5.820  0.4517  0.1256  0.3768
  158EMI     C4 2987   4.812   5.782   5.834 -0.2477  0.4813  0.3775
  158EMI     C5 2988   4.852   5.688   5.923 -0.2582  0.1732 -0.5782
  158EMI     H2 2989   5.117   5.857   5.880 -0.7113 -1.3402 -2.9342
  158EMI     H4 2990   4.724   5.775   5.774  1.3065 -1.6973 -2.8868
  158EMI     H5 2991   4.797   5.607   5.964 -0.0971  0.9557  0.2715
  158EMI    C1' 2992   4.919   5.988   5.724 -0.3953  0.5859 -0.4377
  158EMI    H1' 2993   4.916   6.079   5.781 -1.7303  0.7635 -2.8179
  158EMI    H1' 2994   5.006   5.982   5.669 -0.3305  1.0454  1.7629
  158EMI    H1' 2995   4.836   5.984   5.660  2.9460 -0.3996  1.5919
  158EMI    C1" 2996   5.057   5.634   6.060  0.1490  0.0148  0.5167
  158EMI    H1" 2997   5.017   5.536   6.074  1.4438  1.1479  0.6252
  158EMI    H1" 2998   5.049   5.675   6.162  0.5371  0.3101 -0.0491
  158EMI    C2" 2999   5.210   5.617   6.025  0.1578  0.3808 -0.2518
  158EMI    H2" 3000   5.252   5.537   6.090  1.3040  0.7539 -1.7537
  158EMI    H2" 3001   5.211   5.580   5.920 -0.7671 -2.0555 -0.0048
  158EMI    H2" 3002   5.272   5.705   6.037 -2.3551 -0.5645 -0.3279
  159EMI     N1 3003   2.028   5.466   5.113  0.2853 -0.2726 -0.0788
  159EMI     C2 3004   1.906   5.456   5.057  0.0654 -0.5510  0.5356
  159EMI     N3 3005   1.913   5.477   4.924 -0.0539  0.7945  0.5248
  159EMI     C4 3006   2.039   5.523   4.900  0.0665 -0.1960  0.8322
  159EMI     C5 3007   2.102   5.522   5.017  0.1488 -0.3979  0.6711
  159EMI     H2 3008   1.817   5.419   5.109 -1.9202  0.0882  1.5564
  159EMI     H4 3009   2.063   5.559   4.802  0.3478  1.9562  0.2213
  159EMI     H5 3010   2.210   5.546   5.029  0.5117 -0.6036  0.2514
  159EMI    C1' 3011   1.817   5.456   4.819  0.4746 -0.1574 -0.1603
  159EMI    H1' 3012   1.856   5.501   4.725 -0.8228 -0.0913  0.3734
  159EMI    H1' 3013   1.793   5.350   4.811 -0.0984 -1.1274  0.9434
  159EMI    H1' 3014   1.724   5.505   4.839  0.7830 -1.9840  0.2525
  159EMI    C1" 3015   2.085   5.438   5.251 -0.5727 -0.5206  0.6193
  159EMI    H1" 3016   2.180   5.493   5.259 -0.9038  0.6682 -2.1092
  159EMI    H1" 3017   2.109   5.333   5.268 -2.1712  1.0427  0.5807
  159EMI    C2" 3018   1.994   5.487   5.364  0.1481 -0.7660  0.6490
  159EMI    H2" 3019   1.901   5.427   5.358  0.4891 -2.3917 -2.2586
  159EMI    H2" 3020   2.052   5.458   5.453  1.2107  0.5477 -0.3186
  159EMI    H2" 3021   1.977   5.589   5.351  0.3672 -3.8507  1.9913
  160EMI     N1 3022   5.869   5.361   0.860 -0.6651  0.7975  0.7930
  160EMI     C2 3023   5.919   5.264   0.941 -1.0790  0.4229  0.1985
  160EMI     N3 3024   5.826   5.191   1.004 -0.3878  0.7500 -0.1649
  160EMI     C4 3025   5.706   5.243   0.957 -0.4639 -0.4973 -0.4239
  160EMI     C5 3026   5.733   5.345   0.869  0.1565  0.0908 -0.2397
  160EMI     H2 3027   6.028   5.250   0.969  1.1322 -1.1593 -0.7855
  160EMI     H4 3028   5.604   5.208   0.974  0.6919  0.8965 -1.1483
  160EMI     H5 3029   5.667   5.409   0.809  2.7258  0.9684  0.0917
  160EMI    C1' 3030   5.826   5.083   1.103  0.4498  0.1426 -0.7996
  160EMI    H1' 3031   5.778   5.001   1.059  0.3953  2.5678  1.0178
  160EMI    H1' 3032   5.926   5.053   1.138  1.0949 -3.0815 -0.4405
  160EMI    H1' 3033   5.764   5.114   1.189 -1.7466 -1.4277 -2.2006
  160EMI    C1" 3034   5.920   5.452   0.760 -0.6840  0.0883  0.2882
  160EMI    H1" 3035   5.873   5.435   0.663 -0.0016  1.1105 -0.1755
  160EMI    H1" 3036   6.019   5.420   0.734 -1.8263 -0.4638  0.2169
  160EMI    C2" 3037   5.913   5.596   0.812 -0.4728 -0.7327  0.9139
  160EMI    H2" 3038   5.961   5.680   0.756  0.3793 -0.2931  0.6238
  160EMI    H2" 3039   5.805   5.615   0.802  0.8430 -0.9951 -1.6554
  160EMI    H2" 3040   5.961   5.601   0.914  0.3931  2.9087  1.6665
  161EMI     N1 3041   4.816   5.597   1.335  0.1301  0.1928  0.5229
  161EMI     C2 3042   4.741   5.648   1.237 -0.0650 -0.8665  0.3737
  161EMI     N3 3043   4.819   5.707   1.152 -0.0487 -0.7471  0.5423
  161EMI     C4 3044   4.947   5.693   1.197 -0.4312 -0.6391 -0.7527
  161EMI     C5 3045   4.948   5.622   1.306  0.5289 -0.2466  0.9327
  161EMI     H2 3046   4.633   5.641   1.224  0.3281  0.6045  0.7386
  161EMI     H4 3047   5.037   5.739   1.148 -1.1010  1.8195 -0.9230
  161EMI     H5 3048   5.030   5.599   1.372  2.6786  0.4770 -0.7510
  161EMI    C1' 3049   4.799   5.785   1.028  0.3200  0.2095 -0.1632
  161EMI    H1' 3050   4.754   5.724   0.951  1.2108 -0.0207  0.5352
  161EMI    H1' 3051   4.729   5.868   1.055  0.6569 -4.2018  0.1221
  161EMI    H1' 3052   4.892   5.825   0.996  1.3072  1.5760  1.6872
  161EMI    C1" 3053   4.774   5.530   1.461  0.0705 -0.4157  0.2591
  161EMI    H1" 3054   4.811   5.596   1.536  0.2800  0.5272 -1.9985
  161EMI    H1" 3055   4.822   5.435   1.462  1.3065 -1.9289 -1.7827
  161EMI    C2" 3056   4.622   5.501   1.471 -0.5752  0.4752 -0.0994
  161EMI    H2" 3057   4.568   5.596   1.484 -0.1163 -0.2653  4.2148
  161EMI    H2" 3058   4.589   5.448   1.380  3.6629  1.8297 -1.7860
  161EMI    H2" 3059   4.598   5.438   1.555 -0.1589  0.0678 -1.6865
  162EMI     N1 3060   0.607   6.180   1.697  0.2150 -0.2733 -0.6716
  162EMI     C2 3061   0.653   6.266   1.788 -0.4716 -0.1461  0.4803
  162EMI     N3 3062   0.701   6.376   1.728  0.3133 -0.0489  0.0468
  162EMI     C4 3063   0.695   6.347   1.593 -0.0250  0.2719  0.8631
  162EMI     C5 3064   0.634   6.228   1.574  0.2009  0.2278  1.1365
  162EMI     H2 3065   0.634   6.255   1.895  2.6318  2.1138  0.3702
  162EMI     H4 3066   0.730   6.416   1.515 -1.2853 -2.5071 -2.4348
  162EMI     H5 3067   0.612   6.194   1.476  0.8540 -0.9467  0.7007
  162EMI    C1' 3068   0.748   6.507   1.794  0.0357  0.4747 -0.0528
  162EMI    H1' 3069   0.859   6.518   1.783  0.0744  1.0390 -1.8495
  162EMI    H1' 3070   0.689   6.591   1.750  3.0673 -0.3772 -1.5962
  162EMI    H1' 3071   0.725   6.500   1.901 -2.9020 -2.1178  1.1710
  162EMI    C1" 3072   0.513   6.070   1.718  0.3846  0.4686 -0.5518
  162EMI    H1" 3073   0.412   6.092   1.680 -0.6204 -0.4338  1.5796
  162EMI    H1" 3074   0.514   6.051   1.828  1.9539  1.4750 -3.2539
  162EMI    C2" 3075   0.555   5.938   1.651  0.5106 -0.5039 -0.5507
  162EMI    H2" 3076   0.516   5.852   1.702 -0.2037  1.7357 -1.6357
  162EMI    H2" 3077   0.527   5.933   1.548 -0.4684  3.0982  0.2307
  162EMI    H2" 3078   0.664   5.934   1.658 -0.5695 -1.0228 -2.2727
  163EMI     N1 3079   2.826   0.974   4.175 -0.3162 -0.2637  0.4697
  163EMI     C2 3080   2.704   0.934   4.207  0.1641 -0.5101 -0.2952
  163EMI     N3 3081   2.702   0.798   4.189 -0.5125 -0.0181  0.5453
  163EMI     C4 3082   2.812   0.757   4.113  0.0404  0.1183  0.3014
  163EMI     C5 3083   2.886   0.874   4.101 -0.0981 -0.3084  0.0777
  163EMI     H2 3084   2.632   0.985   4.263  1.2669  1.2547  2.3789
  163EMI     H4 3085   2.830   0.660   4.073  0.9004  2.1790 -0.5253
  163EMI     H5 3086   2.977   0.887   4.047 -0.9030  0.6576 -2.3449
  163EMI    C1' 3087   2.598   0.695   4.226  0.2958 -0.3740 -0.1131
  163EMI    H1' 3088   2.533   0.717   4.310  0.3244 -1.4450 -2.1065
  163EMI    H1' 3089   2.525   0.694   4.143  0.5752  2.2193  0.9232
  163EMI    H1' 3090   2.641   0.596   4.227 -0.2589 -0.2288  1.3084
  163EMI    C1" 3091   2.875   1.110   4.182 -0.1086 -0.0603 -0.3430
  163EMI    H1" 3092   2.936   1.122   4.271  0.3848  1.6038  0.8479
  163EMI    H1" 3093   2.789   1.179   4.192  2.3677 -0.7428 -0.7199
  163EMI    C2" 3094   2.956   1.145   4.063  0.0923 -0.3985  0.0766
  163EMI    H2" 3095   2.988   1.249   4.058  2.4862 -0.2514  0.0784
  163EMI    H2" 3096   3.051   1.094   4.067  0.1848 -2.2109 -1.2869
  163EMI    H2" 3097   2.904   1.132   3.966  0.4515  0.1004 -1.1169
  164EMI     N1 3098   3.571   1.979   5.887  0.2568 -0.3675  0.3944
  164EMI     C2 3099   3.679   1.977   5.805 -0.1780  0.2830  0.6662
  164EMI     N3 3100   3.774   2.055   5.859 -1.0982 -0.4141  0.2946
  164EMI     C4 3101   3.734   2.097   5.978  0.0828  0.0057  0.0893
  164EMI     C5 3102   3.605   2.056   6.000  0.6103  0.1837  0.3616
  164EMI     H2 3103   3.683   1.947   5.703 -1.6407  1.1051 -0.7283
  164EMI     H4 3104   3.794   2.173   6.037  0.2647  0.5725  2.1404
  164EMI     H5 3105   3.545   2.077   6.084 -0.0497 -0.1326  1.1965
  164EMI    C1' 3106   3.907   2.091   5.803 -0.8146 -0.1053  0.0908
  164EMI    H1' 3107   3.980   2.024   5.844  0.6535  2.1634 -0.0597
  164EMI    H1' 3108   3.900   2.063   5.695  0.5881 -2.7430  0.7609
  164EMI    H1' 3109   3.936   2.193   5.825  2.1123 -0.4343 -0.7739
  164EMI    C1" 3110   3.445   1.897   5.873  0.5790 -0.0080 -0.0505
  164EMI    H1" 3111   3.393   1.887   5.966 -3.3688  0.7248 -0.3993
  164EMI    H1" 3112   3.482   1.795   5.843  0.0717  0.9719 -2.2059
  164EMI    C2" 3113   3.352   1.956   5.768  0.0136 -0.3000 -0.9902
  164EMI    H2" 3114   3.364   2.068   5.750  0.6834 -1.0598 -0.6207
  164EMI    H2" 3115   3.371   1.903   5.681  0.1882 -1.5994  1.3233
  164EMI    H2" 3116   3.248   1.940   5.806 -1.6028  0.4971  0.0548
  165EMI     N1 3117   3.768   4.982   5.980 -0.2650  0.2527  0.1547
  165EMI     C2 3118   3.865   5.007   6.066 -0.4155 -0.2400  0.1160
  165EMI     N3 3119   3.944   5.104   6.021  0.4336 -0.0850 -0.3703
  165EMI     C4 3120   3.881   5.152   5.913 -0.3018  0.5995  1.2210
  165EMI     C5 3121   3.776   5.078   5.884 -0.1281  0.4120  1.0908
  165EMI     H2 3122   3.888   4.945   6.150  0.7354 -2.6172 -2.1506
  165EMI     H4 3123   3.921   5.231   5.846 -0.7175 -2.0743 -3.2772
  165EMI     H5 3124   3.725   5.078   5.789 -0.1257  0.5408  3.9098
  165EMI    C1' 3125   4.065   5.167   6.068  0.0436  0.2731  0.0007
  165EMI    H1' 3126   4.061   5.273   6.071 -1.9533  0.7402 -0.7390
  165EMI    H1' 3127   4.095   5.132   6.165  1.1857 -1.3991 -0.7677
  165EMI    H1' 3128   4.154   5.139   6.008  1.0098  2.4326 -1.9606
  165EMI    C1" 3129   3.657   4.877   5.993  0.0667  0.8852  0.1013
  165EMI    H1" 3130   3.691   4.783   6.030  1.3951  0.4335  2.1323
  165EMI    H1" 3131   3.608   4.861   5.894 -1.0108  1.5917 -0.7857
  165EMI    C2" 3132   3.555   4.927   6.097  0.4519 -0.3838 -0.2922
  165EMI    H2" 3133   3.601   4.926   6.192 -1.5493  2.3139 -0.1503
  165EMI    H2" 3134   3.506   5.016   6.075 -3.1999 -0.0548  0.2160
  165EMI    H2" 3135   3.476   4.853   6.108 -1.3767  0.4299  0.6338
  166EMI     N1 3136   1.925   5.961   4.411  0.1002 -0.5146  0.2608
  166EMI     C2 3137   2.003   5.924   4.517  0.7559 -0.2994  0.8067
  166EMI     N3 3138   1.926   5.894   4.621 -0.2203  0.6079  0.0685
  166EMI     C4 3139   1.796   5.901   4.590 -0.5781  0.0020  0.3657
  166EMI     C5 3140   1.797   5.940   4.461 -0.2828 -0.3474  0.5327
  166EMI     H2 3141   2.105   5.916   4.505 -0.2316 -1.4855  0.3213
  166EMI     H4 3142   1.716   5.882   4.647  0.1669  2.1451 -1.6247
  166EMI     H5 3143   1.710   5.958   4.400  2.0806 -1.4737  1.2222
  166EMI    C1' 3144   1.974   5.821   4.742  0.4606  0.8866  0.1405
  166EMI    H1' 3145   2.082   5.835   4.752  2.5652 -1.7746  0.9073
  166EMI    H1' 3146   1.917   5.864   4.833 -0.9579  3.1004 -0.4420
  166EMI    H1' 3147   1.946   5.717   4.723 -0.1413  1.4756 -1.4086
  166EMI    C1" 3148   1.952   6.010   4.277 -0.5260 -0.1140  0.5689
  166EMI    H1" 3149   2.059   6.020   4.281 -0.2648 -0.2223 -2.1099
  166EMI    H1" 3150   1.909   6.103   4.246  0.2676  0.8420  2.0085
  166EMI    C2" 3151   1.925   5.901   4.170 -0.5137  0.3788 -0.0199
  166EMI    H2" 3152   1.827   5.878   4.163  0.1467 -1.5961  3.4931
  166EMI    H2" 3153   1.954   5.949   4.072 -0.1172 -0.2479  1.1598
  166EMI    H2" 3154   1.992   5.821   4.192 -2.1540  2.4860  0.1056
  167EMI     N1 3155   1.055   3.356   2.912 -0.6985 -0.7550 -0.8312
  167EMI     C2 3156   0.997   3.471   2.940 -0.1023  0.4450 -0.4936
  167EMI     N3 3157   0.877   3.451   3.001  0.2342  0.1052 -0.1324
  167EMI     C4 3158   0.855   3.318   3.003  0.7695  0.4101  0.8995
  167EMI     C5 3159   0.964   3.263   2.947 -0.1113  0.2199 -0.2279
  167EMI     H2 3160   1.046   3.563   2.918 -0.2552 -0.3325  0.1630
  167EMI     H4 3161   0.764   3.273   3.040 -1.5619  1.3599 -1.5783
  167EMI     H5 3162   0.983   3.157   2.927 -1.0210 -0.3192 -1.2240
  167EMI    C1' 3163   0.781   3.540   3.058  0.0829  0.0436  0.2854
  167EMI    H1' 3164   0.825   3.579   3.153  0.2292 -1.9386 -2.0407
  167EMI    H1' 3165   0.758   3.611   2.984  0.6107 -1.0601  0.4991
  167EMI    H1' 3166   0.693   3.483   3.088 -3.8715  2.7299 -2.2734
  167EMI    C1" 3167   1.183   3.329   2.834 -0.6242  0.4028 -0.1403
  167EMI    H1" 3168   1.212   3.234   2.877 -3.0534 -1.9191  2.7284
  167EMI    H1" 3169   1.270   3.397   2.851  2.2092 -1.5389 -0.0341
  167EMI    C2" 3170   1.157   3.311   2.680  0.5487 -0.5627 -0.0449
  167EMI    H2" 3171   1.151   3.410   2.628  0.7609  2.2662 -0.4803
  167EMI    H2" 3172   1.244   3.257   2.646  1.8890 -1.0492 -0.0898
  167EMI    H2" 3173   1.058   3.265   2.654  0.8656  0.5074 -1.9574
  168EMI     N1 3174   5.016   4.954   3.223  0.1399 -0.2960 -0.2747
  168EMI     C2 3175   4.936   4.847   3.199  0.2256  0.0520 -0.1034
  168EMI     N3 3176   5.004   4.759   3.121  0.0853 -0.0762  0.6482
  168EMI     C4 3177   5.126   4.815   3.097 -1.0072 -0.7026 -0.6478
  168EMI     C5 3178   5.137   4.931   3.165 -0.3970  0.6146  0.3921
  168EMI     H2 3179   4.838   4.833   3.237 -1.9141  2.1696 -2.5420
  168EMI     H4 3180   5.207   4.772   3.037  1.0967 -0.3595  1.1302
  168EMI     H5 3181   5.221   5.000   3.174  0.7876 -1.7824 -3.6571
  168EMI    C1' 3182   4.963   4.626   3.073  0.3454  0.0292 -0.1040
  168EMI    H1' 3183   4.985   4.609   2.970 -2.1312 -2.2274  0.3414
  168EMI    H1' 3184   4.993   4.542   3.137 -0.1043  0.6947 -2.5942
  168EMI    H1' 3185   4.855   4.618   3.078 -1.4187 -3.0351  0.6537
  168EMI    C1" 3186   4.991   5.084   3.289 -0.7442 -0.0775 -0.5466
  168EMI    H1" 3187   5.051   5.093   3.383 -0.9229  3.1879 -1.2690
  168EMI    H1" 3188   4.888   5.088   3.323 -2.8330 -1.7955 -0.6704
  168EMI    C2" 3189   5.007   5.204   3.200  0.3173 -0.4848 -0.1548
  168EMI    H2" 3190   5.112   5.206   3.164  0.4869  2.7743 -0.4193
  168EMI    H2" 3191   4.949   5.188   3.112 -0.7370  0.9169  0.6248
  168EMI    H2" 3192   4.973   5.295   3.252 -2.9837  2.5808  0.1437
  169EMI     N1 3193   3.858   1.631   1.621 -0.1772 -0.1655  0.4724
  169EMI     C2 3194   3.735   1.681   1.610 -0.1778  0.7979  0.1180
  169EMI     N3 3195   3.695   1.681   1.483  0.1541  0.2182  0.3293
  169EMI     C4 3196   3.787   1.602   1.417  0.4532  0.2095 -0.3458
  169EMI     C5 3197   3.893   1.585   1.497 -0.0587  0.8581  1.1201
  169EMI     H2 3198   3.685   1.710   1.700 -0.2741 -3.0117  3.5630
  169EMI     H4 3199   3.787   1.565   1.319  2.1895  0.2773  0.4001
  169EMI     H5 3200   3.980   1.522   1.468 -0.6607 -1.0700  1.3818
  169EMI    C1' 3201   3.579   1.736   1.408  0.2967  0.6157 -0.5720
  169EMI    H1' 3202   3.591   1.720   1.300  1.7060 -1.0239 -0.3966
  169EMI    H1' 3203   3.495   1.676   1.444 -0.5550 -4.0322 -0.2659
  169EMI    H1' 3204   3.574   1.838   1.437  0.4938 -3.0751 -0.2142
  169EMI    C1" 3205   3.937   1.604   1.745  0.7434  0.1999 -0.9278
  169EMI    H1" 3206   3.951   1.503   1.776  1.1990 -0.9557  1.7388
  169EMI    H1" 3207   3.878   1.652   1.829 -2.5145  1.0193  0.8634
  169EMI    C2" 3208   4.070   1.667   1.725  0.4568  0.1851  0.7493
  169EMI    H2" 3209   4.141   1.599   1.676  3.8338 -0.6263 -3.8253
  169EMI    H2" 3210   4.062   1.764   1.673  0.2010 -0.0977 -2.0246
  169EMI    H2" 3211   4.117   1.689   1.824 -2.2152  0.2984  2.0473
  170EMI     N1 3212   0.443   4.228   3.193 -0.8920  0.1410 -0.6381
  170EMI     C2 3213   0.482   4.353   3.153 -0.1968 -0.6147  0.1869
  170EMI     N3 3214   0.383   4.397   3.070  0.0994 -0.3639 -0.1001
  170EMI     C4 3215   0.291   4.301   3.054 -0.4549  0.2895 -0.4048
  170EMI     C5 3216   0.320   4.202   3.138 -0.3235 -0.1610  0.2732
  170EMI     H2 3217   0.571   4.412   3.179  1.1401 -0.0110  0.9553
  170EMI     H4 3218   0.195   4.313   3.000 -2.1308 -0.7727  1.0722
  170EMI     H5 3219   0.254   4.118   3.152 -1.4274  0.6775  1.3120
  170EMI    C1' 3220   0.394   4.516   2.985 -0.2270  0.5793 -0.4871
  170EMI    H1' 3221   0.311   4.525   2.917  0.9516  2.1237  0.3248
  170EMI    H1' 3222   0.420   4.602   3.050  0.2746 -1.1431 -0.3822
  170EMI    H1' 3223   0.473   4.502   2.909 -2.0002 -0.7499  2.9875
  170EMI    C1" 3224   0.507   4.131   3.287  0.4662 -0.1121  0.2033
  170EMI    H1" 3225   0.617   4.145   3.278 -0.2535  1.4862  0.3106
  170EMI    H1" 3226   0.479   4.024   3.262  1.9050 -2.4177  0.2511
  170EMI    C2" 3227   0.464   4.146   3.435 -0.0004  0.1867 -0.5351
  170EMI    H2" 3228   0.496   4.057   3.485 -0.3288  2.1204  1.6124
  170EMI    H2" 3229   0.515   4.227   3.485  0.6646  0.9437 -1.1160
  170EMI    H2" 3230   0.356   4.157   3.448  0.0651 -0.9133  0.4252
  171EMI     N1 3231   0.737   4.732   6.322 -0.6034  0.3433 -0.0005
  171EMI     C2 3232   0.698   4.673   6.208  0.4290  0.0456 -0.3994
  171EMI     N3 3233   0.592   4.744   6.160 -0.0755  0.3272  0.3005
  171EMI     C4 3234   0.567   4.852   6.239 -0.2337 -0.6669  0.3197
  171EMI     C5 3235   0.662   4.846   6.338  0.0031 -0.3714 -0.2350
  171EMI     H2 3236   0.744   4.585   6.162  0.2475 -0.3590  0.3843
  171EMI     H4 3237   0.481   4.929   6.233 -0.2065  2.1294 -0.6632
  171EMI     H5 3238   0.670   4.909   6.424 -1.9163  1.9512  0.1212
  171EMI    C1' 3239   0.502   4.701   6.048  0.3823 -1.4167 -0.0350
  171EMI    H1' 3240   0.461   4.604   6.077  0.8980 -0.8279  1.2153
  171EMI    H1' 3241   0.429   4.783   6.031 -0.1049 -2.3423  1.7667
  171EMI    H1' 3242   0.568   4.689   5.956  0.8531  0.1282 -4.7518
  171EMI    C1" 3243   0.857   4.697   6.400  0.1470  0.4862  0.3162
  171EMI    H1" 3244   0.883   4.777   6.466 -0.2549  0.7262  2.3258
  171EMI    H1" 3245   0.938   4.676   6.327  3.0115  0.1961  0.5774
  171EMI    C2" 3246   0.841   4.568   6.482  0.0954 -0.4519  0.0652
  171EMI    H2" 3247   0.825   4.486   6.412  1.6537  0.8406  1.1982
  171EMI    H2" 3248   0.936   4.538   6.526 -0.0584 -0.0133 -0.6258
  171EMI    H2" 3249   0.756   4.570   6.551  0.4194 -0.2551  0.9974
  172EMI     N1 3250   3.731   5.008   3.706 -0.3853  0.3238 -0.0805
  172EMI     C2 3251   3.718   5.009   3.569 -0.4874  0.3682  0.5045
  172EMI     N3 3252   3.661   4.893   3.537 -0.4604  0.0279 -0.3730
  172EMI     C4 3253   3.635   4.820   3.649  0.7082 -0.1048 -0.3912
  172EMI     C5 3254   3.684   4.889   3.758  0.4033  0.0490 -0.2274
  172EMI     H2 3255   3.733   5.094   3.493 -2.9201 -0.1303 -0.0877
  172EMI     H4 3256   3.597   4.722   3.663  2.9226  0.4183 -1.7621
  172EMI     H5 3257   3.676   4.866   3.861 -0.7762 -0.1646  0.3958
  172EMI    C1' 3258   3.591   4.859   3.411  0.5950  0.1158  0.4642
  172EMI    H1' 3259   3.533   4.774   3.433  2.4743  2.7464  1.9323
  172EMI    H1' 3260   3.530   4.947   3.384  0.6055  0.8741 -2.4137
  172EMI    H1' 3261   3.661   4.841   3.327 -0.4783 -0.4719 -2.8946
  172EMI    C1" 3262   3.779   5.121   3.797 -0.0977  0.3448  0.0621
  172EMI    H1" 3263   3.720   5.130   3.888 -1.9070  0.3056 -1.3034
  172EMI    H1" 3264   3.759   5.212   3.746 -0.1926  2.0123 -1.2416
  172EMI    C2" 3265   3.930   5.121   3.813 -0.0268  0.0722 -0.4899
  172EMI    H2" 3266   3.950   5.040   3.883 -1.9887 -0.2561 -1.9311
  172EMI    H2" 3267   3.970   5.100   3.716 -2.6738  0.4540  1.5013
  172EMI    H2" 3268   3.952   5.223   3.853 -1.8100  0.9999 -1.2043
  173EMI     N1 3269   2.561   4.875   0.242 -0.0550 -0.3667  0.3231
  173EMI     C2 3270   2.494   4.989   0.234 -0.2283  0.7045 -0.1306
  173EMI     N3 3271   2.369   4.962   0.283  0.2720  0.2330 -0.5057
  173EMI     C4 3272   2.356   4.833   0.321  0.1935 -0.0861  0.2316
  173EMI     C5 3273   2.477   4.772   0.285  0.4464  0.0326  0.1623
  173EMI     H2 3274   2.541   5.079   0.197 -1.8009 -3.8234 -0.8153
  173EMI     H4 3275   2.265   4.782   0.348 -0.4073 -0.4577  2.3055
  173EMI     H5 3276   2.491   4.662   0.290  0.9882 -1.7954  1.3194
  173EMI    C1' 3277   2.263   5.060   0.297 -0.1878  0.3030 -0.0445
  173EMI    H1' 3278   2.287   5.135   0.367  0.7951 -1.6748  0.1743
  173EMI    H1' 3279   2.241   5.097   0.199 -1.0832  0.8183  0.0986
  173EMI    H1' 3280   2.169   5.020   0.338  0.4019 -0.1659 -1.7918
  173EMI    C1" 3281   2.706   4.850   0.215 -0.0323 -0.8078  0.8527
  173EMI    H1" 3282   2.749   4.931   0.149  0.4115  1.4279  0.0344
  173EMI    H1" 3283   2.713   4.767   0.153  0.6472  1.3843 -0.9317
  173EMI    C2" 3284   2.775   4.823   0.353 -0.2253  0.1500  0.2522
  173EMI    H2" 3285   2.705   4.786   0.425  1.8941 -0.2837  0.0735
  173EMI    H2" 3286   2.851   4.748   0.329  0.2986  2.1132 -1.7220
  173EMI    H2" 3287   2.832   4.908   0.399  1.8586 -1.4332  0.2318
  174EMI     N1 3288   1.675   3.069   0.311  0.1977 -0.7153  0.3461
  174EMI     C2 3289   1.636   3.186   0.255 -0.4758 -0.6490 -0.6791
  174EMI     N3 3290   1.694   3.290   0.312 -0.3162 -0.2536 -0.0870
  174EMI     C4 3291   1.782   3.241   0.410 -0.6367 -0.0324  0.7252
  174EMI     C5 3292   1.766   3.106   0.408 -0.1113 -0.1571 -0.6275
  174EMI     H2 3293   1.556   3.191   0.186  0.0559 -1.2157  2.6156
  174EMI     H4 3294   1.851   3.295   0.482  1.2580 -0.1622  0.8741
  174EMI     H5 3295   1.809   3.040   0.478  0.5736  0.7767  4.2463
  174EMI    C1' 3296   1.650   3.430   0.293  0.3167 -0.4166  0.0051
  174EMI    H1' 3297   1.543   3.442   0.279 -0.6599 -1.4223 -0.7449
  174EMI    H1' 3298   1.678   3.491   0.379 -2.7071  1.0150 -0.2937
  174EMI    H1' 3299   1.701   3.475   0.208 -0.0729  2.2982 -0.2032
  174EMI    C1" 3300   1.638   2.932   0.298  0.1914 -0.1540  0.2620
  174EMI    H1" 3301   1.700   2.861   0.356 -2.1448 -0.5813 -1.1253
  174EMI    H1" 3302   1.653   2.903   0.195 -0.9539  1.2650 -0.7376
  174EMI    C2" 3303   1.496   2.906   0.331  0.5443  0.1565 -0.2204
  174EMI    H2" 3304   1.465   2.809   0.288  1.3375 -2.7431 -2.4570
  174EMI    H2" 3305   1.482   2.899   0.436 -2.1707  0.0293 -0.9511
  174EMI    H2" 3306   1.425   2.973   0.289 -1.6972 -0.6958  3.1288
  175EMI     N1 3307   5.038   2.125   1.093  0.2573  0.1953 -0.2649
  175EMI     C2 3308   4.995   2.149   0.970  0.3355 -0.7250  0.6143
  175EMI     N3 3309   4.985   2.032   0.907  0.5743 -0.1695  0.2437
  175EMI     C4 3310   5.024   1.933   0.985 -0.1692 -0.0639 -0.6515
  175EMI     C5 3311   5.067   1.989   1.100 -0.1863 -0.5089  0.5569
  175EMI     H2 3312   4.968   2.253   0.941 -1.8714 -1.7786  1.8260
  175EMI     H4 3313   5.024   1.829   0.966 -1.0533  0.3579 -0.8878
  175EMI     H5 3314   5.111   1.929   1.185 -2.3091  1.2110  1.8376
  175EMI    C1' 3315   4.926   1.999   0.772  0.2865  0.5174 -0.0274
  175EMI    H1' 3316   4.911   2.092   0.721  2.0653  1.8076  3.0718
  175EMI    H1' 3317   4.975   1.927   0.712  0.3850 -1.2573 -4.0159
  175EMI    H1' 3318   4.832   1.950   0.795 -0.5917 -0.6927  1.8089
  175EMI    C1" 3319   5.061   2.227   1.204  0.4017  0.3774 -0.0890
  175EMI    H1" 3320   5.051   2.321   1.152 -0.2199  1.8756  0.4220
  175EMI    H1" 3321   5.159   2.221   1.251  1.2964 -1.4824  1.1111
  175EMI    C2" 3322   4.952   2.216   1.308 -0.1460  0.2499  0.4274
  175EMI    H2" 3323   4.959   2.300   1.372 -3.2647 -0.4646 -1.9912
  175EMI    H2" 3324   4.847   2.220   1.260  1.2639 -3.4846  1.9428
  175EMI    H2" 3325   4.981   2.121   1.366 -0.5345  1.3782  0.9825
  176EMI     N1 3326   4.772   1.943   4.481  0.2388 -0.0772  0.0262
  176EMI     C2 3327   4.802   2.017   4.370 -0.5675 -0.4061 -0.1801
  176EMI     N3 3328   4.703   2.016   4.278  0.5101  0.0327  0.0190
  176EMI     C4 3329   4.606   1.940   4.336  0.1310  0.4828  0.6433
  176EMI     C5 3330   4.648   1.890   4.458 -0.6932  0.2134  0.5326
  176EMI     H2 3331   4.892   2.077   4.360  3.1728  1.6663  1.3513
  176EMI     H4 3332   4.513   1.922   4.277  1.1170 -0.1416 -0.5251
  176EMI     H5 3333   4.587   1.824   4.528 -2.1301  0.0973 -1.5191
  176EMI    C1' 3334   4.669   2.091   4.156  0.0899  0.5341  0.3426
  176EMI    H1' 3335   4.734   2.183   4.148 -1.7618 -0.0792  0.7578
  176EMI    H1' 3336   4.679   2.019   4.074 -0.0920 -0.6869  0.6320
  176EMI    H1' 3337   4.568   2.126   4.163 -1.2392  1.1808 -1.0218
  176EMI    C1" 3338   4.854   1.902   4.601  0.0823  0.4535 -0.4029
  176EMI    H1" 3339   4.948   1.950   4.600  2.2827 -4.1420  1.3646
  176EMI    H1" 3340   4.868   1.799   4.589 -1.0964  1.3578  0.2128
  176EMI    C2" 3341   4.782   1.934   4.733 -0.3690  0.1900 -0.7659
  176EMI    H2" 3342   4.696   1.880   4.759  0.4534 -0.9234  1.0049
  176EMI    H2" 3343   4.852   1.919   4.814  2.4350 -0.4044  0.8895
  176EMI    H2" 3344   4.764   2.041   4.744  0.6405 -1.9477 -1.9165
  177EMI     N1 3345   3.212   4.726   2.377  0.2067 -0.5574 -0.4101
  177EMI     C2 3346   3.223   4.592   2.394 -0.2456 -0.2050 -0.0715
  177EMI     N3 3347   3.311   4.543   2.304 -0.4551  0.1657 -0.7779
  177EMI     C4 3348   3.372   4.651   2.243 -0.4145  0.5861  0.0224
  177EMI     C5 3349   3.311   4.763   2.293  0.4456  0.7203 -1.5631
  177EMI     H2 3350   3.166   4.547   2.470 -0.4523  0.1234 -2.5542
  177EMI     H4 3351   3.448   4.641   2.159 -2.5569  0.9853 -1.5885
  177EMI     H5 3352   3.323   4.865   2.255 -1.2806 -0.8974 -0.3428
  177EMI    C1' 3353   3.360   4.411   2.280 -0.3316 -0.2780 -0.1026
  177EMI    H1' 3354   3.320   4.342   2.355  1.7654  1.5701 -4.2949
  177EMI    H1' 3355   3.311   4.366   2.191  1.3301 -1.1866 -1.0213
  177EMI    H1' 3356   3.469   4.412   2.280 -0.5965  1.1328  1.8464
  177EMI    C1" 3357   3.130   4.822   2.449  0.4267 -0.1537  0.4001
  177EMI    H1" 3358   3.185   4.889   2.509 -0.8483  0.8574 -1.3357
  177EMI    H1" 3359   3.068   4.761   2.514 -0.7504 -3.0204  1.4299
  177EMI    C2" 3360   3.042   4.907   2.355  0.2108  0.2921  0.3416
  177EMI    H2" 3361   2.990   4.844   2.285 -0.4577  0.6895 -0.4685
  177EMI    H2" 3362   2.972   4.978   2.401 -2.3064 -0.0456  1.6951
  177EMI    H2" 3363   3.111   4.966   2.287  1.8318 -0.8903  0.8442
  178EMI     N1 3364   5.056   0.364   4.611  0.0743  0.1405  0.3332
  178EMI     C2 3365   5.097   0.481   4.568 -0.8596  0.3202 -0.4129
  178EMI     N3 3366   5.185   0.533   4.656 -0.4236 -0.2438  0.0550
  178EMI     C4 3367   5.204   0.434   4.759 -0.5442  0.2904  0.0674
  178EMI     C5 3368   5.119   0.335   4.731  0.0086 -0.1224  0.1355
  178EMI     H2 3369   5.082   0.517   4.470  0.0067 -1.3150  2.2092
  178EMI     H4 3370   5.273   0.444   4.839 -0.4209 -1.5957 -1.6679
  178EMI     H5 3371   5.090   0.252   4.799  0.0396 -1.8602  0.3669
  178EMI    C1' 3372   5.269   0.648   4.639 -0.3364 -0.2166 -0.1730
  178EMI    H1' 3373   5.367   0.621   4.616  2.2950 -0.1359  1.1610
  178EMI    H1' 3374   5.233   0.718   4.563  1.1592  0.2548  0.4212
  178EMI    H1' 3375   5.283   0.695   4.734  0.5299  0.9053  0.8429
  178EMI    C1" 3376   4.949   0.273   4.562  0.8626 -0.1279  0.4182
  178EMI    H1" 3377   4.866   0.279   4.627  3.0929  1.8997 -0.5454
  178EMI    H1" 3378   4.993   0.180   4.556  0.7465  1.8283  1.7042
  178EMI    C2" 3379   4.904   0.325   4.422  0.3067  0.3180  0.2441
  178EMI    H2" 3380   4.983   0.343   4.348 -0.6284  1.1948 -0.9389
  178EMI    H2" 3381   4.819   0.259   4.394 -1.2020 -0.2572  0.9728
  178EMI    H2" 3382   4.851   0.410   4.448 -1.4433  0.4798  1.2671
  179EMI     N1 3383   2.264   4.565   5.960 -0.2492  0.1200  0.2214
  179EMI     C2 3384   2.239   4.674   5.879 -0.0577  0.1939 -0.2595
  179EMI     N3 3385   2.149   4.759   5.937 -0.5094  0.4170  0.5590
  179EMI     C4 3386   2.105   4.688   6.052 -0.6308 -0.5581 -0.1219
  179EMI     C5 3387   2.178   4.577   6.068 -0.0346 -0.2092  0.4080
  179EMI     H2 3388   2.276   4.694   5.776  0.9524 -2.4312  0.1489
  179EMI     H4 3389   2.023   4.714   6.114 -0.2596  0.1098  1.6221
  179EMI     H5 3390   2.158   4.498   6.150 -1.0713 -0.8767  1.0027
  179EMI    C1' 3391   2.098   4.888   5.891 -0.3321 -0.1460 -0.3292
  179EMI    H1' 3392   2.152   4.960   5.946 -0.6891  0.4792 -1.2640
  179EMI    H1' 3393   2.112   4.910   5.789  0.2183  1.8374  2.0782
  179EMI    H1' 3394   1.991   4.891   5.920  2.1247  0.4586 -1.9232
  179EMI    C1" 3395   2.358   4.451   5.935 -0.3304 -0.9424  0.8169
  179EMI    H1" 3396   2.379   4.436   5.825 -1.5392 -0.6281 -1.4268
  179EMI    H1" 3397   2.322   4.357   5.975  0.6734 -0.4795  2.3277
  179EMI    C2" 3398   2.490   4.480   5.989  0.2003  0.3037 -0.6830
  179EMI    H2" 3399   2.533   4.568   5.930  0.4918  0.1851  0.8163
  179EMI    H2" 3400   2.486   4.500   6.096 -0.3653 -0.4746 -2.8320
  179EMI    H2" 3401   2.564   4.404   5.973 -1.6358  2.6148 -0.4892
  180EMI     N1 3402   2.565   2.019   5.454 -0.0650  0.0593 -0.5451
  180EMI     C2 3403   2.563   2.151   5.438 -0.3785  0.0058 -0.2575
  180EMI     N3 3404   2.469   2.206   5.518 -0.1769 -0.3357 -0.5567
  180EMI     C4 3405   2.424   2.106   5.603 -0.1638 -0.5125 -0.4913
  180EMI     C5 3406   2.478   1.987   5.559 -0.1016  0.1464  0.1749
  180EMI     H2 3407   2.619   2.205   5.368  0.5840 -0.5948  0.4296
  180EMI     H4 3408   2.355   2.117   5.679 -0.5667 -1.2433  0.3709
  180EMI     H5 3409   2.458   1.892   5.598 -0.3307 -1.3156 -2.3087
  180EMI    C1' 3410   2.437   2.350   5.527  0.7218 -0.5482  0.2403
  180EMI    H1' 3411   2.536   2.398   5.538  0.3393  0.7783 -0.9234
  180EMI    H1' 3412   2.389   2.386   5.437 -1.8766 -0.0057  1.1451
  180EMI    H1' 3413   2.372   2.362   5.615 -0.1701  0.3203 -0.6215
  180EMI    C1" 3414   2.639   1.918   5.378  0.5046  0.1727  0.1938
  180EMI    H1" 3415   2.707   1.860   5.445 -0.1565 -0.2386  2.8922
  180EMI    H1" 3416   2.707   1.952   5.302 -0.6158 -0.9537  2.0892
  180EMI    C2" 3417   2.546   1.816   5.316  0.6843 -0.9269  0.1725
  180EMI    H2" 3418   2.507   1.764   5.396 -0.2124  0.4339  0.1884
  180EMI    H2" 3419   2.481   1.864   5.244  1.2101 -0.5103 -1.1060
  180EMI    H2" 3420   2.608   1.745   5.267 -1.6173  2.8203  1.7747
  181EMI     N1 3421   0.425   5.974   4.164  0.2601  0.3663 -0.5162
  181EMI     C2 3422   0.351   5.863   4.194  0.0512 -0.1387  0.0448
  181EMI     N3 3423   0.357   5.832   4.323  0.0536  0.0838 -0.0405
  181EMI     C4 3424   0.432   5.934   4.379  0.5639 -0.2649 -0.1334
  181EMI     C5 3425   0.475   6.017   4.282  0.4233  0.1535 -0.1732
  181EMI     H2 3426   0.306   5.792   4.126  0.3416  0.7031  0.3475
  181EMI     H4 3427   0.451   5.948   4.478 -2.5084  1.1611 -3.0467
  181EMI     H5 3428   0.527   6.108   4.296  0.1652 -2.3628 -0.3161
  181EMI    C1' 3429   0.294   5.728   4.403 -0.0381  0.0125 -0.2593
  181EMI    H1' 3430   0.290   5.751   4.504  0.2389  1.3200 -0.2667
  181EMI    H1' 3431   0.194   5.695   4.364 -2.0346  1.0196  1.2825
  181EMI    H1' 3432   0.364   5.639   4.395  1.1260 -0.2382 -0.5838
  181EMI    C1" 3433   0.441   6.046   4.041 -0.1913 -0.6964 -0.2422
  181EMI    H1" 3434   0.457   5.974   3.964 -0.8644  0.6746 -0.6126
  181EMI    H1" 3435   0.530   6.110   4.044  3.6375 -0.4658  0.5161
  181EMI    C2" 3436   0.306   6.118   4.006 -0.1400  1.0122  0.1332
  181EMI    H2" 3437   0.327   6.183   3.917  0.6356  1.7176 -0.6517
  181EMI    H2" 3438   0.227   6.043   3.985  0.7610 -2.0094  0.8360
  181EMI    H2" 3439   0.281   6.185   4.082  0.3106  0.5486 -0.7405
  182EMI     N1 3440   3.382   5.887   5.688  0.8797 -0.8279  0.4145
  182EMI     C2 3441   3.255   5.885   5.652  0.8227  0.1519 -0.1329
  182EMI     N3 3442   3.174   5.873   5.759  0.4548 -0.2603 -0.2158
  182EMI     C4 3443   3.257   5.863   5.867  0.5221  0.0531 -0.2555
  182EMI     C5 3444   3.387   5.865   5.827  0.6836  0.9953 -0.1311
  182EMI     H2 3445   3.212   5.907   5.553 -0.1165 -1.0231 -0.4001
  182EMI     H4 3446   3.232   5.831   5.965 -1.3797  1.9333 -2.6116
  182EMI     H5 3447   3.475   5.857   5.892  1.0931  2.0657 -0.8494
  182EMI    C1' 3448   3.028   5.856   5.758 -0.3950  0.0078  0.2725
  182EMI    H1' 3449   2.996   5.783   5.840 -0.0750  0.3289  0.0736
  182EMI    H1' 3450   2.979   5.951   5.749 -1.5263  0.2818  0.1892
  182EMI    H1' 3451   3.008   5.806   5.660 -0.7038  0.2931  0.8804
  182EMI    C1" 3452   3.502   5.891   5.595  0.0696 -1.1014  0.2186
  182EMI    H1" 3453   3.469   5.883   5.491  0.0893  1.3569  2.3127
  182EMI    H1" 3454   3.563   5.810   5.636 -0.2304 -0.0026  0.7185
  182EMI    C2" 3455   3.579   6.026   5.610  0.2077  0.0550  0.6925
  182EMI    H2" 3456   3.615   6.052   5.507 -1.0651  2.9516 -0.6102
  182EMI    H2" 3457   3.497   6.102   5.633  0.5296 -2.2845  1.5554
  182EMI    H2" 3458   3.655   6.011   5.690  2.0773  0.0079  1.8683
  183EMI     N1 3459   3.713   1.011   1.657 -0.8703 -0.5639  0.4771
  183EMI     C2 3460   3.619   1.056   1.572  0.1773 -0.8324  0.4689
  183EMI     N3 3461   3.515   0.973   1.572 -0.5778  0.7201  0.1383
  183EMI     C4 3462   3.544   0.859   1.644  0.1634  0.1833 -0.3049
  183EMI     C5 3463   3.661   0.887   1.700 -0.7727  0.3667 -0.6112
  183EMI     H2 3464   3.616   1.142   1.513  0.3809  2.7713  1.2207
  183EMI     H4 3465   3.474   0.777   1.661  0.2194  1.3500  1.6784
  183EMI     H5 3466   3.707   0.828   1.782  2.3337  0.4415 -1.8434
  183EMI    C1' 3467   3.404   0.976   1.477  0.1556 -0.1779  0.0456
  183EMI    H1' 3468   3.367   0.878   1.474  2.9944  1.4859 -0.0519
  183EMI    H1' 3469   3.332   1.041   1.506  0.6337 -3.2971  0.2078
  183EMI    H1' 3470   3.447   1.000   1.383 -0.5611  0.0598  1.5027
  183EMI    C1" 3471   3.835   1.071   1.715  0.5653 -0.3176  0.8163
  183EMI    H1" 3472   3.920   1.003   1.689 -0.2562 -1.8235 -1.1929
  183EMI    H1" 3473   3.827   1.079   1.822  2.2636 -2.5328 -2.1007
  183EMI    C2" 3474   3.861   1.218   1.666  0.0328  0.0821 -0.3075
  183EMI    H2" 3475   3.853   1.212   1.553  3.4359 -0.0140 -0.9355
  183EMI    H2" 3476   3.794   1.288   1.710 -0.5825 -1.5947  1.3123
  183EMI    H2" 3477   3.966   1.248   1.688 -4.6370 -1.8342  0.5243
  184EMI     N1 3478   2.699   4.895   2.074  0.1322 -0.5292 -0.0883
  184EMI     C2 3479   2.653   4.884   2.200 -0.3990  0.3465  0.0872
  184EMI     N3 3480   2.673   5.004   2.259  0.6938 -0.0839 -0.2022
  184EMI     C4 3481   2.723   5.094   2.166  0.0605 -0.3251 -1.2251
  184EMI     C5 3482   2.737   5.026   2.047  0.1347 -0.0819  0.4955
  184EMI     H2 3483   2.615   4.800   2.260 -2.5051  1.6498  1.3869
  184EMI     H4 3484   2.743   5.197   2.192  2.3470  0.6406  1.5106
  184EMI     H5 3485   2.774   5.061   1.957  0.7776  0.3984 -0.9804
  184EMI    C1' 3486   2.627   5.051   2.392 -0.4584 -0.4549 -0.3545
  184EMI    H1' 3487   2.538   5.112   2.387  0.5038  4.1238  1.3058
  184EMI    H1' 3488   2.612   4.966   2.462 -0.8255  1.4161 -1.4769
  184EMI    H1' 3489   2.705   5.118   2.435 -0.2752  2.9486 -0.1987
  184EMI    C1" 3490   2.705   4.785   1.972 -0.2261  0.6051  0.2247
  184EMI    H1" 3491   2.728   4.695   2.038 -3.4775 -2.5137 -1.6389
  184EMI    H1" 3492   2.792   4.800   1.916 -1.5892 -2.0217 -1.2722
  184EMI    C2" 3493   2.579   4.762   1.886  0.1622  0.5590  0.4386
  184EMI    H2" 3494   2.605   4.703   1.798 -1.1762  0.7606  3.7410
  184EMI    H2" 3495   2.493   4.716   1.942 -1.0879 -0.2503 -1.3258
  184EMI    H2" 3496   2.548   4.853   1.842  0.6539 -2.5409  0.2530
  185EMI     N1 3497   5.614   3.744   1.003 -0.2415  0.3389 -0.2728
  185EMI     C2 3498   5.649   3.762   1.129  0.1466 -0.1485 -0.4893
  185EMI     N3 3499   5.701   3.886   1.140 -0.0210 -0.1800 -0.7570
  185EMI     C4 3500   5.702   3.946   1.019 -0.0529 -0.2577  0.1438
  185EMI     C5 3501   5.657   3.852   0.933 -0.2289 -0.6417  0.2123
  185EMI     H2 3502   5.625   3.692   1.208  0.0176 -1.1166 -0.5663
  185EMI     H4 3503   5.730   4.041   0.983 -0.3614 -0.1020 -1.2531
  185EMI     H5 3504   5.636   3.871   0.831 -1.3269 -0.3806  0.9145
  185EMI    C1' 3505   5.750   3.960   1.263  0.2479  0.6447  0.4276
  185EMI    H1' 3506   5.671   4.005   1.320 -0.2739 -0.6342 -2.0169
  185EMI    H1' 3507   5.786   3.879   1.332 -2.9726 -2.9753 -0.4626
  185EMI    H1' 3508   5.827   4.028   1.236 -2.4133 -0.2567 -2.2540
  185EMI    C1" 3509   5.539   3.646   0.932  0.1291  0.5521 -0.4014
  185EMI    H1" 3510   5.463   3.701   0.887  1.6735 -1.3635  0.8381
  185EMI    H1" 3511   5.503   3.570   1.003 -0.4322 -0.1578 -0.2867
  185EMI    C2" 3512   5.631   3.576   0.831 -0.7048 -0.9531  0.0100
  185EMI    H2" 3513   5.633   3.626   0.730  1.9383 -1.8649  1.3480
  185EMI    H2" 3514   5.737   3.570   0.876 -2.9436 -1.3093 -0.5490
  185EMI    H2" 3515   5.597   3.473   0.819  1.3804  0.0637 -0.7680
  186EMI     N1 3516   5.445   1.119   1.793  0.0603  0.3226 -0.0833
  186EMI     C2 3517   5.390   1.083   1.910 -0.7857  0.6346 -0.0020
  186EMI     N3 3518   5.465   1.101   2.013 -0.0015 -0.7492 -0.1330
  186EMI     C4 3519   5.579   1.159   1.963  0.0791 -0.1801  0.1003
  186EMI     C5 3520   5.567   1.168   1.830  0.7944 -0.0995  0.4824
  186EMI     H2 3521   5.297   1.028   1.910  2.5837 -3.7333  0.4588
  186EMI     H4 3522   5.663   1.186   2.019 -0.0838 -1.1010 -1.8555
  186EMI     H5 3523   5.650   1.210   1.772  1.9457 -1.6861  2.1342
  186EMI    C1' 3524   5.452   1.064   2.152 -0.1268  0.3230 -0.2211
  186EMI    H1' 3525   5.343   1.069   2.180  1.4019  2.0048  3.5618
  186EMI    H1' 3526   5.489   0.967   2.179 -1.4302 -2.1531  0.2364
  186EMI    H1' 3527   5.517   1.127   2.221 -0.2044  0.2185  0.3671
  186EMI    C1" 3528   5.397   1.115   1.647  0.3745 -0.9333 -0.3850
  186EMI    H1" 3529   5.449   1.036   1.591 -0.1011 -0.5828 -1.0700
  186EMI    H1" 3530   5.406   1.217   1.592 -0.1294  1.5567 -1.0574
  186EMI    C2" 3531   5.249   1.075   1.639 -0.2364 -0.2285 -0.1297
  186EMI    H2" 3532   5.229   0.967   1.653  0.8230  0.0792  0.5641
  186EMI    H2" 3533   5.196   1.135   1.711  2.5961  0.5387 -2.7398
  186EMI    H2" 3534   5.203   1.103   1.541  0.3990 -1.2866 -1.7193
  187EMI     N1 3535   4.184   2.864   2.543 -0.3720  0.9190  0.4291
  187EMI     C2 3536   4.059   2.909   2.558  0.6514 -0.1204 -0.6860
  187EMI     N3 3537   4.023   2.979   2.445  0.0368  0.4384 -0.3932
  187EMI     C4 3538   4.121   2.954   2.350 -0.3419 -0.0515 -0.5621
  187EMI     C5 3539   4.220   2.886   2.410  0.2653  0.2473  0.0555
  187EMI     H2 3540   4.017   2.913   2.657 -1.0376 -3.3987 -0.0544
  187EMI     H4 3541   4.116   2.998   2.253 -1.0733  0.2636  2.0310
  187EMI     H5 3542   4.307   2.843   2.364  0.2160  1.0066 -1.0470
  187EMI    C1' 3543   3.915   3.068   2.421 -0.0539 -0.4683  0.6955
  187EMI    H1' 3544   3.937   3.156   2.359 -1.0891  0.9606  0.4850
  187EMI    H1' 3545   3.832   3.009   2.383 -0.8055  0.1999 -1.4898
  187EMI    H1' 3546   3.875   3.103   2.515  4.6911 -4.3443  3.2233
  187EMI    C1" 3547   4.275   2.791   2.636 -0.7622 -0.2803 -0.2817
  187EMI    H1" 3548   4.233   2.689   2.640 -1.4833 -0.9550  0.8831
  187EMI    H1" 3549   4.260   2.829   2.741 -1.3895  3.4629  1.5678
  187EMI    C2" 3550   4.421   2.810   2.597  0.3106 -0.0247  0.3073
  187EMI    H2" 3551   4.490   2.779   2.678 -1.9877  0.1644  1.6177
  187EMI    H2" 3552   4.439   2.754   2.508 -1.8644  5.1545 -0.8543
  187EMI    H2" 3553   4.445   2.912   2.576  0.9562 -0.5110  3.0479
  188EMI     N1 3554   5.758   3.815   5.423  0.5604 -0.2088 -0.4302
  188EMI     C2 3555   5.737   3.941   5.376  0.2139  0.0821 -0.4735
  188EMI     N3 3556   5.625   3.938   5.298  0.1618  0.1977 -0.0724
  188EMI     C4 3557   5.576   3.812   5.295  0.2415  0.0225  0.3602
  188EMI     C5 3558   5.654   3.739   5.372  0.1041  0.2821  0.2348
  188EMI     H2 3559   5.797   4.031   5.401 -0.4305  1.2528  2.2181
  188EMI     H4 3560   5.493   3.771   5.239  0.7209 -3.4933  0.4837
  188EMI     H5 3561   5.646   3.632   5.399  0.8243  1.1022  0.8030
  188EMI    C1' 3562   5.566   4.039   5.220  0.2925 -0.2603 -0.0995
  188EMI    H1' 3563   5.636   4.101   5.164  0.1165  0.2870  2.3576
  188EMI    H1' 3564   5.489   4.009   5.155  1.2966  0.1704  0.4611
  188EMI    H1' 3565   5.516   4.111   5.284 -1.0257 -1.0520  2.6846
  188EMI    C1" 3566   5.851   3.755   5.515 -0.0430  0.4637 -0.3889
  188EMI    H1" 3567   5.832   3.653   5.503  0.1584  0.7081  0.7071
  188EMI    H1" 3568   5.830   3.784   5.617 -1.3711 -2.6848 -0.9793
  188EMI    C2" 3569   5.990   3.800   5.482  0.6398  0.2559 -0.2670
  188EMI    H2" 3570   6.022   3.780   5.379  1.2443 -1.8941 -0.1745
  188EMI    H2" 3571   5.997   3.904   5.509  0.1556  1.7157 -1.8932
  188EMI    H2" 3572   6.063   3.750   5.552 -0.2277  0.9547 -1.0262
  189EMI     N1 3573   1.315   1.808   0.790  0.2501 -0.7159 -0.0170
  189EMI     C2 3574   1.202   1.743   0.818 -0.1574  0.5434 -0.5624
  189EMI     N3 3575   1.164   1.671   0.711 -0.0052  0.6244 -0.0620
  189EMI     C4 3576   1.263   1.698   0.613 -0.0418 -0.3310 -0.0517
  189EMI     C5 3577   1.353   1.786   0.662  0.3761 -0.6802 -1.1594
  189EMI     H2 3578   1.133   1.760   0.901 -0.6903  0.3369 -1.0848
  189EMI     H4 3579   1.260   1.652   0.516 -1.7363  1.1020 -1.5662
  189EMI     H5 3580   1.440   1.820   0.612 -0.2003  1.4455 -0.4269
  189EMI    C1' 3581   1.057   1.574   0.689  0.7919  0.5279  0.2168
  189EMI    H1' 3582   1.058   1.553   0.583 -0.0061 -1.2982  1.6123
  189EMI    H1' 3583   1.083   1.488   0.744 -1.2063 -0.9176 -1.5266
  189EMI    H1' 3584   0.963   1.612   0.716 -0.0123 -3.5719 -1.5518
  189EMI    C1" 3585   1.374   1.915   0.872  0.2921 -0.1161 -0.0527
  189EMI    H1" 3586   1.482   1.901   0.877 -1.9522  0.4625 -0.7267
  189EMI    H1" 3587   1.328   1.906   0.974 -0.7482 -1.2966 -0.1955
  189EMI    C2" 3588   1.373   2.055   0.808  0.1069  0.0785 -0.2784
  189EMI    H2" 3589   1.389   2.054   0.702 -0.9438 -1.0393 -1.8374
  189EMI    H2" 3590   1.278   2.101   0.821 -0.3221  0.2341  1.6347
  189EMI    H2" 3591   1.447   2.107   0.866  0.4612 -2.0134 -2.4284
  190EMI     N1 3592   2.475   3.463   3.383  0.1776  0.3708  0.3210
  190EMI     C2 3593   2.504   3.438   3.509 -1.0934  0.0932  0.3966
  190EMI     N3 3594   2.467   3.310   3.538 -0.4059  0.5815  0.1113
  190EMI     C4 3595   2.398   3.257   3.431 -0.0145 -0.4150  0.2887
  190EMI     C5 3596   2.402   3.356   3.340  0.5962  0.4012  0.2151
  190EMI     H2 3597   2.562   3.497   3.580  1.5319 -0.8061  1.3645
  190EMI     H4 3598   2.348   3.159   3.423 -1.9128  1.0741  0.5569
  190EMI     H5 3599   2.361   3.352   3.240  3.1966 -0.6975 -0.0742
  190EMI    C1' 3600   2.492   3.236   3.660 -0.2099  0.1989 -0.1817
  190EMI    H1' 3601   2.416   3.249   3.734 -1.7914  0.3925  0.9996
  190EMI    H1' 3602   2.505   3.122   3.642  1.1841  1.5598  2.2409
  190EMI    H1' 3603   2.586   3.276   3.711  4.9431  1.1645 -0.9881
  190EMI    C1" 3604   2.487   3.592   3.299  0.1059  0.2244  0.4562
  190EMI    H1" 3605   2.384   3.623   3.298  0.9306 -2.2731  3.0292
  190EMI    H1" 3606   2.521   3.566   3.202  0.2260 -0.7367  0.5990
  190EMI    C2" 3607   2.581   3.690   3.366  0.0480 -0.3969  0.0512
  190EMI    H2" 3608   2.584   3.781   3.306  1.8013  0.2423 -1.1983
  190EMI    H2" 3609   2.548   3.711   3.473  0.2892 -0.2394  0.3958
  190EMI    H2" 3610   2.684   3.641   3.376 -1.5782  0.5135 -1.6931
  191EMI     N1 3611   5.941   3.243   3.564 -0.3599 -0.1289 -0.4509
  191EMI     C2 3612   6.029   3.145   3.530  0.2230  0.2711 -0.0923
  191EMI     N3 3613   5.974   3.019   3.555 -0.2289 -0.7949 -0.1725
  191EMI     C4 3614   5.851   3.044   3.624 -0.1592  0.2049  1.0545
  191EMI     C5 3615   5.831   3.175   3.622  0.2442 -0.3406 -0.5893
  191EMI     H2 3616   6.128   3.165   3.498 -1.1739  1.6589 -1.4501
  191EMI     H4 3617   5.793   2.963   3.672 -1.1946 -1.4119  1.6750
  191EMI     H5 3618   5.742   3.229   3.655  1.3694 -0.5456  0.1583
  191EMI    C1' 3619   6.034   2.886   3.537  0.9839  0.4313  0.6272
  191EMI    H1' 3620   6.000   2.822   3.617 -1.0075 -1.4050 -0.6490
  191EMI    H1' 3621   5.983   2.830   3.452 -0.8452  2.0228 -0.5306
  191EMI    H1' 3622   6.146   2.893   3.532 -0.3074  1.5536 -1.9330
  191EMI    C1" 3623   5.960   3.388   3.534 -0.2567  0.1350  0.0014
  191EMI    H1" 3624   5.885   3.412   3.453 -0.8744 -2.6211  1.5972
  191EMI    H1" 3625   6.063   3.411   3.499  0.5879  1.2490 -1.6737
  191EMI    C2" 3626   5.923   3.477   3.646 -0.2818  0.1233 -0.0676
  191EMI    H2" 3627   5.988   3.457   3.728  1.2725 -0.4572 -0.4235
  191EMI    H2" 3628   5.955   3.577   3.628  0.9684  0.2062 -0.3352
  191EMI    H2" 3629   5.814   3.470   3.669 -2.6770  0.2802 -0.3275
  192EMI     N1 3630   5.923   3.939   4.566 -0.0561  0.5187 -0.7085
  192EMI     C2 3631   5.981   3.950   4.690 -0.2091  0.0616  0.5671
  192EMI     N3 3632   6.097   4.017   4.680  0.5964  0.5402  0.2528
  192EMI     C4 3633   6.125   4.029   4.548 -0.0913  0.6677  0.2234
  192EMI     C5 3634   6.015   3.990   4.475 -0.7479  0.9095 -0.4877
  192EMI     H2 3635   5.938   3.927   4.785 -0.3464  4.5872 -1.3700
  192EMI     H4 3636   6.227   4.057   4.506  0.5427  0.8718  2.0000
  192EMI     H5 3637   6.011   3.990   4.367  0.0316  2.2174 -0.6569
  192EMI    C1' 3638   6.190   4.068   4.775  0.0510 -0.4612  0.9608
  192EMI    H1' 3639   6.230   3.984   4.833 -0.3545 -1.7175  1.3990
  192EMI    H1' 3640   6.267   4.113   4.718  2.8147  1.2111 -0.4252
  192EMI    H1' 3641   6.155   4.149   4.829  0.5432  1.4737 -3.1475
  192EMI    C1" 3642   5.783   3.893   4.531  0.2521  0.4154 -0.4435
  192EMI    H1" 3643   5.748   3.948   4.442 -2.3734  1.2518 -0.3674
  192EMI    H1" 3644   5.719   3.929   4.608  0.3042 -0.3692 -0.6392
  192EMI    C2" 3645   5.778   3.740   4.524  0.2266 -0.1061 -0.2835
  192EMI    H2" 3646   5.848   3.705   4.453  0.5126 -1.7509 -1.1746
  192EMI    H2" 3647   5.782   3.697   4.624  0.3303 -1.3981 -0.2054
  192EMI    H2" 3648   5.680   3.705   4.478  2.4284  2.0700  0.9975
  193EMI     N1 3649   5.365   2.663   3.297  0.9336 -0.2901 -0.3224
  193EMI     C2 3650   5.339   2.717   3.420  0.5982 -0.6491  0.3268
  193EMI     N3 3651   5.373   2.851   3.425  0.4561 -0.5057 -0.3528
  193EMI     C4 3652   5.413   2.881   3.297  0.0096 -0.1601  0.0066
  193EMI     C5 3653   5.408   2.767   3.219 -0.0502 -0.2847 -0.6091
  193EMI     H2 3654   5.313   2.643   3.493 -2.2975  1.5819 -0.9062
  193EMI     H4 3655   5.440   2.980   3.270  0.4863  1.0485 -1.3183
  193EMI     H5 3656   5.433   2.772   3.109  0.2591  1.8709  3.1597
  193EMI    C1' 3657   5.398   2.947   3.535 -0.0397 -0.1170  0.8677
  193EMI    H1' 3658   5.494   2.993   3.525 -1.7720  0.0085 -0.3649
  193EMI    H1' 3659   5.316   3.023   3.521  0.0772 -2.0680 -0.8853
  193EMI    H1' 3660   5.393   2.893   3.632  0.0237 -0.0805  1.0569
  193EMI    C1" 3661   5.339   2.529   3.245 -0.1676 -0.3415  0.8376
  193EMI    H1" 3662   5.405   2.455   3.289 -0.3070 -2.2796  0.5494
  193EMI    H1" 3663   5.353   2.528   3.139  0.5053  0.7519  0.6378
  193EMI    C2" 3664   5.191   2.488   3.262  0.9535  0.2469 -0.3941
  193EMI    H2" 3665   5.128   2.555   3.196  0.1190 -1.4897 -0.9580
  193EMI    H2" 3666   5.181   2.384   3.232 -0.2085 -0.8414  0.5011
  193EMI    H2" 3667   5.165   2.493   3.370 -1.2670  0.4886  1.6757
  194EMI     N1 3668   4.032   5.621   3.998 -0.3029 -0.0833  0.1338
  194EMI     C2 3669   3.985   5.556   3.889  0.3446 -0.4014  0.0803
  194EMI     N3 3670   3.855   5.537   3.889  0.1617 -0.1701 -0.5228
  194EMI     C4 3671   3.812   5.571   4.015 -0.3465 -0.1254  0.0398
  194EMI     C5 3672   3.917   5.634   4.073 -0.0710  0.6389 -0.3901
  194EMI     H2 3673   4.047   5.519   3.812 -1.8846 -0.2688  0.0256
  194EMI     H4 3674   3.719   5.543   4.065 -0.8296 -2.0824  2.2404
  194EMI     H5 3675   3.907   5.669   4.175  1.1141 -0.5956 -1.8517
  194EMI    C1' 3676   3.763   5.475   3.790 -0.3032  0.3675 -0.3586
  194EMI    H1' 3677   3.779   5.526   3.689  2.7225 -1.6747  0.1042
  194EMI    H1' 3678   3.788   5.373   3.775  1.2825  2.1112 -1.0488
  194EMI    H1' 3679   3.662   5.489   3.824  0.3217  1.0664 -2.3969
  194EMI    C1" 3680   4.168   5.654   4.048  0.4297  0.3778 -0.7751
  194EMI    H1" 3681   4.173   5.633   4.158 -0.7359 -0.3439  1.5836
  194EMI    H1" 3682   4.170   5.763   4.039 -0.2343  1.1992 -2.0285
  194EMI    C2" 3683   4.280   5.585   3.968 -0.0900  0.6142  0.1214
  194EMI    H2" 3684   4.376   5.636   3.982  0.4757  1.1148  0.2799
  194EMI    H2" 3685   4.295   5.476   3.996  0.3013  1.9554 -0.2081
  194EMI    H2" 3686   4.261   5.583   3.865 -1.0003 -2.1657 -1.0071
  195EMI     N1 3687   4.393   5.857   0.348  0.0054  0.1106 -0.2972
  195EMI     C2 3688   4.404   5.993   0.372 -0.1234  0.2367 -0.0868
  195EMI     N3 3689   4.496   6.012   0.470 -0.1088  0.3336 -0.2951
  195EMI     C4 3690   4.545   5.887   0.504 -0.2398  0.4676  0.0166
  195EMI     C5 3691   4.477   5.793   0.437  1.0153  0.5948 -0.4045
  195EMI     H2 3692   4.346   6.078   0.337 -1.1877 -1.8571 -1.4166
  195EMI     H4 3693   4.621   5.882   0.578  2.9074  0.0267 -0.5269
  195EMI     H5 3694   4.495   5.693   0.433 -1.9919  0.7644 -0.7800
  195EMI    C1' 3695   4.533   6.133   0.544 -0.9720  0.2500 -0.3100
  195EMI    H1' 3696   4.550   6.115   0.648  0.6201 -0.3394  1.3484
  195EMI    H1' 3697   4.628   6.168   0.514 -1.1804  1.7284  1.3122
  195EMI    H1' 3698   4.460   6.210   0.530  1.0211 -1.1215 -1.9629
  195EMI    C1" 3699   4.289   5.782   0.281  0.8142 -0.5741  0.1134
  195EMI    H1" 3700   4.279   5.683   0.321 -0.5616 -0.7840 -0.0183
  195EMI    H1" 3701   4.309   5.770   0.173  0.3581 -1.9477  0.8886
  195EMI    C2" 3702   4.156   5.845   0.304  1.0604  0.2874 -0.6100
  195EMI    H2" 3703   4.156   5.951   0.281 -0.9982  1.5934  3.4330
  195EMI    H2" 3704   4.078   5.812   0.240 -1.4562 -0.2208  2.6101
  195EMI    H2" 3705   4.123   5.827   0.405  0.0024 -1.0910 -0.8208
  196EMI     N1 3706   2.672   1.460   4.504  0.0471  0.3344  0.1593
  196EMI     C2 3707   2.768   1.533   4.571 -0.2263  0.9923 -0.4863
  196EMI     N3 3708   2.889   1.497   4.521 -0.0940 -0.3144  0.2478
  196EMI     C4 3709   2.873   1.414   4.418  0.0650  0.5460 -0.0522
  196EMI     C5 3710   2.740   1.387   4.405 -0.5710  0.1590 -0.5403
  196EMI     H2 3711   2.755   1.607   4.644  0.6266  2.3418 -1.9591
  196EMI     H4 3712   2.956   1.368   4.361  1.6363  0.5676 -0.6134
  196EMI     H5 3713   2.701   1.320   4.333 -1.6784 -1.6249 -1.5206
  196EMI    C1' 3714   3.022   1.539   4.554 -0.2638 -0.4535  0.1287
  196EMI    H1' 3715   3.020   1.643   4.586  0.5960  2.0280  2.0204
  196EMI    H1' 3716   3.051   1.468   4.631  1.5542 -2.2504  0.5754
  196EMI    H1' 3717   3.087   1.529   4.476 -1.0578  0.1892  1.1835
  196EMI    C1" 3718   2.524   1.453   4.503  0.6928  0.0211  0.4911
  196EMI    H1" 3719   2.491   1.362   4.455 -0.1014  1.1150  1.5615
  196EMI    H1" 3720   2.488   1.541   4.447  1.6265  0.8379 -0.8240
  196EMI    C2" 3721   2.457   1.440   4.643  0.2803 -0.2801  0.4396
  196EMI    H2" 3722   2.349   1.418   4.623  1.0049 -2.8046 -5.3240
  196EMI    H2" 3723   2.494   1.359   4.710  0.2477 -1.1148  0.7925
  196EMI    H2" 3724   2.465   1.537   4.687  2.6874 -0.1596  0.8627
  197EMI     N1 3725   3.405   0.486   5.174  0.4922 -0.4917 -0.1440
  197EMI     C2 3726   3.508   0.403   5.163  0.3574  0.1899  0.1370
  197EMI     N3 3727   3.554   0.368   5.284 -0.2279 -0.5519  0.3395
  197EMI     C4 3728   3.482   0.441   5.370  0.4964 -0.1675 -0.2497
  197EMI     C5 3729   3.386   0.510   5.307  0.0794 -0.0133 -0.2146
  197EMI     H2 3730   3.549   0.356   5.072  2.0413 -0.3676 -2.3115
  197EMI     H4 3731   3.498   0.446   5.478 -0.2581  1.4080 -0.5561
  197EMI     H5 3732   3.311   0.586   5.357 -2.0907 -0.9718 -0.3172
  197EMI    C1' 3733   3.642   0.260   5.325  0.7825  0.1621 -0.1806
  197EMI    H1' 3734   3.729   0.267   5.260 -0.8611 -1.1463 -0.2967
  197EMI    H1' 3735   3.676   0.274   5.431  1.0274 -0.1322  1.9252
  197EMI    H1' 3736   3.596   0.160   5.324  2.9666 -0.9932 -0.6557
  197EMI    C1" 3737   3.299   0.531   5.083 -0.4461  0.2859  0.0671
  197EMI    H1" 3738   3.300   0.640   5.089 -0.8748 -0.8335 -1.1252
  197EMI    H1" 3739   3.201   0.506   5.117  2.7816  1.6311  1.7650
  197EMI    C2" 3740   3.328   0.501   4.937 -0.4011  0.5047  0.4626
  197EMI    H2" 3741   3.249   0.549   4.875 -0.3623 -0.3396 -1.0735
  197EMI    H2" 3742   3.428   0.522   4.916  1.4851 -1.1161 -4.2396
  197EMI    H2" 3743   3.309   0.393   4.918 -1.5032  1.4886 -1.1126
  198EMI     N1 3744   5.063   2.013   3.746 -0.0523  0.2101  0.0768
  198EMI     C2 3745   5.092   2.142   3.712 -0.3325 -0.0654  0.9651
  198EMI     N3 3746   5.044   2.158   3.585  0.0836 -0.1537  0.5257
  198EMI     C4 3747   4.998   2.033   3.542  0.5338  0.4723  0.0460
  198EMI     C5 3748   5.006   1.945   3.638 -0.1566 -0.3531  0.2592
  198EMI     H2 3749   5.124   2.219   3.778  1.0481 -1.6101  2.7128
  198EMI     H4 3750   4.959   2.017   3.441  1.6002 -1.0849  0.7098
  198EMI     H5 3751   4.971   1.842   3.643 -0.6755 -0.6151 -0.2915
  198EMI    C1' 3752   5.036   2.281   3.502  0.8260 -0.3191  0.3109
  198EMI    H1' 3753   4.979   2.349   3.558 -1.5163 -2.6273  2.5844
  198EMI    H1' 3754   5.135   2.323   3.483  0.4170  2.4732 -0.3417
  198EMI    H1' 3755   4.984   2.257   3.403 -0.4720  0.6286  0.5298
  198EMI    C1" 3756   5.083   1.946   3.880  0.1765  0.7656  1.1407
  198EMI    H1" 3757   5.153   2.003   3.938  0.0990 -0.5099  0.0394
  198EMI    H1" 3758   5.137   1.854   3.855  1.2858  1.7694  2.0825
  198EMI    C2" 3759   4.956   1.933   3.955  0.1912 -0.4611 -0.3076
  198EMI    H2" 3760   4.916   2.035   3.981 -0.3228 -0.2268  2.5786
  198EMI    H2" 3761   4.888   1.857   3.915  0.1483 -2.2722  1.7328
  198EMI    H2" 3762   4.991   1.904   4.057 -1.8377  1.1826 -0.7563
  199EMI     N1 3763   3.212   2.778   6.064 -0.1257  0.1162 -0.2984
  199EMI     C2 3764   3.311   2.795   5.975 -0.4172  0.4225  0.2424
  199EMI     N3 3765   3.371   2.911   5.991 -0.4646 -0.1208 -0.0973
  199EMI     C4 3766   3.291   2.980   6.070 -0.3289 -0.1957 -0.4918
  199EMI     C5 3767   3.204   2.898   6.125 -0.0186  0.2193  0.1929
  199EMI     H2 3768   3.339   2.715   5.904  1.6203 -2.5673  0.0711
  199EMI     H4 3769   3.315   3.085   6.093 -2.0598  0.9574 -2.7706
  199EMI     H5 3770   3.135   2.925   6.213  0.4454  1.4477 -1.4742
  199EMI    C1' 3771   3.483   2.980   5.916 -0.2221 -0.1227  0.3701
  199EMI    H1' 3772   3.547   3.023   5.989 -2.2791 -2.7840  0.9938
  199EMI    H1' 3773   3.539   2.907   5.854 -1.2797  0.9375 -0.4398
  199EMI    H1' 3774   3.427   3.050   5.854  0.2081 -1.2714  0.5664
  199EMI    C1" 3775   3.118   2.670   6.089 -0.0615  0.4603  1.2158
  199EMI    H1" 3776   3.060   2.701   6.170  0.5399 -1.0287  2.4140
  199EMI    H1" 3777   3.184   2.583   6.115  3.1000  0.9081 -0.9520
  199EMI    C2" 3778   3.037   2.659   5.959  0.5305 -0.1107 -0.1720
  199EMI    H2" 3779   2.974   2.571   5.961  1.5723  0.6600  1.4734
  199EMI    H2" 3780   2.980   2.749   5.942  1.3819 -0.9125 -0.9990
  199EMI    H2" 3781   3.110   2.638   5.878  1.6125  0.4967 -0.3050
  200EMI     N1 3782   0.303   0.230   3.124  0.2807 -0.1976  0.1205
  200EMI     C2 3783   0.253   0.120   3.072 -0.0051 -0.0107 -0.2589
  200EMI     N3 3784   0.342   0.014   3.082 -0.4099  0.3525  0.3761
  200EMI     C4 3785   0.454   0.069   3.148  0.2071  0.2932  0.7922
  200EMI     C5 3786   0.428   0.201   3.168 -0.2775  0.0887 -0.1514
  200EMI     H2 3787   0.157   0.119   3.035  3.5226 -0.1099  0.2231
  200EMI     H4 3788   0.543   0.011   3.164  1.7884  0.6917 -1.1898
  200EMI     H5 3789   0.484   0.279   3.219 -1.2423 -0.8506 -2.9046
  200EMI    C1' 3790   0.329  -0.130   3.047 -0.0173 -0.4187  0.2804
  200EMI    H1' 3791   0.281  -0.142   2.950  2.3714 -2.0965 -1.0444
  200EMI    H1' 3792   0.432  -0.154   3.038  0.1090  1.5624  0.8496
  200EMI    H1' 3793   0.269  -0.179   3.129 -0.3483  1.1946  3.1687
  200EMI    C1" 3794   0.245   0.359   3.130 -0.2195 -0.9553 -0.5199
  200EMI    H1" 3795   0.169   0.363   3.055 -0.6161 -0.2216  2.4697
  200EMI    H1" 3796   0.317   0.444   3.117 -0.3050  0.5415  2.0168
  200EMI    C2" 3797   0.187   0.384   3.270  0.9364  0.3725 -0.1632
  200EMI    H2" 3798   0.148   0.481   3.278 -2.7637 -0.3958  0.8595
  200EMI    H2" 3799   0.097   0.320   3.283  1.6400  1.4761  0.3739
  200EMI    H2" 3800   0.267   0.358   3.348  0.7777  0.8306  2.7369
  201EMI     N1 3801   5.477   2.230   3.992 -0.4094  0.4530  0.3401
  201EMI     C2 3802   5.577   2.160   3.941 -0.5027  0.0753  0.5227
  201EMI     N3 3803   5.542   2.111   3.819  0.1048 -0.2567 -0.3693
  201EMI     C4 3804   5.418   2.166   3.793 -0.2259  0.0524 -0.3843
  201EMI     C5 3805   5.374   2.230   3.902  0.0555 -0.2960 -0.3473
  201EMI     H2 3806   5.669   2.151   3.982 -0.9291  0.2587  1.4224
  201EMI     H4 3807   5.369   2.156   3.698  0.4117 -0.7630 -0.2044
  201EMI     H5 3808   5.284   2.282   3.912  1.1821 -2.5191  0.4052
  201EMI    C1' 3809   5.605   2.038   3.713 -1.4270  0.1179  0.0224
  201EMI    H1' 3810   5.571   1.943   3.741  0.5217  0.7621  1.4611
  201EMI    H1' 3811   5.579   2.063   3.612  0.7081 -0.1223 -1.3091
  201EMI    H1' 3812   5.716   2.036   3.731  1.1055 -0.1355  1.3227
  201EMI    C1" 3813   5.468   2.286   4.127  0.0728  0.7488 -0.0552
  201EMI    H1" 3814   5.505   2.209   4.195 -0.6272  1.3866  0.7306
  201EMI    H1" 3815   5.360   2.307   4.139 -1.6150 -0.6083 -1.1830
  201EMI    C2" 3816   5.556   2.417   4.142 -0.2120  0.6332 -0.6255
  201EMI    H2" 3817   5.545   2.440   4.251  2.0625 -1.2101 -0.8693
  201EMI    H2" 3818   5.662   2.399   4.128 -0.7123  0.9526  1.2546
  201EMI    H2" 3819   5.505   2.502   4.092  0.3319 -0.6459 -1.5317
  202EMI     N1 3820   3.974   0.989   1.139 -0.2796 -0.2938  0.4566
  202EMI     C2 3821   3.848   1.041   1.142 -0.3838 -0.8777  0.2502
  202EMI     N3 3822   3.771   1.001   1.038  0.2836 -0.3596 -0.1055
  202EMI     C4 3823   3.856   0.916   0.965 -0.7234 -0.2770 -0.0644
  202EMI     C5 3824   3.982   0.913   1.025 -0.2755  1.4603  0.7804
  202EMI     H2 3825   3.817   1.112   1.215 -0.2966  1.7987 -0.6204
  202EMI     H4 3826   3.838   0.859   0.875 -1.1672  0.4584  2.4639
  202EMI     H5 3827   4.065   0.860   0.985 -2.2396 -3.1217  0.6409
  202EMI    C1' 3828   3.636   1.048   0.998  0.5770  0.1303  0.4563
  202EMI    H1' 3829   3.626   1.157   0.994 -1.5394  1.4067  1.0320
  202EMI    H1' 3830   3.610   1.007   0.899 -0.2676 -2.9087 -4.3685
  202EMI    H1' 3831   3.558   1.004   1.064 -1.7381 -1.3294 -1.9107
  202EMI    C1" 3832   4.086   1.022   1.224 -0.1137 -0.6483 -0.0580
  202EMI    H1" 3833   4.181   0.996   1.180  0.4762  0.8951 -0.9352
  202EMI    H1" 3834   4.069   0.966   1.321 -3.4214  0.1915 -0.0946
  202EMI    C2" 3835   4.101   1.172   1.258  0.0495  0.1924  0.2849
  202EMI    H2" 3836   4.102   1.227   1.163 -0.1900  0.5182  0.0623
  202EMI    H2" 3837   4.019   1.204   1.325 -3.1585 -0.9668 -0.8811
  202EMI    H2" 3838   4.197   1.189   1.311  1.3952 -1.3529  1.2028
  203EMI     N1 3839   1.935   5.274   1.534  0.7356  0.2891 -0.2420
  203EMI     C2 3840   1.880   5.315   1.649 -0.4359 -0.0339 -0.4917
  203EMI     N3 3841   1.977   5.293   1.747  0.2489 -0.0805 -0.4554
  203EMI     C4 3842   2.082   5.229   1.691  0.2034  0.2505 -0.2518
  203EMI     C5 3843   2.053   5.211   1.561 -0.6456  0.0651  0.0054
  203EMI     H2 3844   1.786   5.369   1.656  1.6078 -1.6052 -0.7793
  203EMI     H4 3845   2.180   5.205   1.722 -0.3853 -3.2254  0.8853
  203EMI     H5 3846   2.122   5.171   1.484 -0.1869  2.0848 -2.9166
  203EMI    C1' 3847   1.968   5.322   1.896 -0.3561 -0.4992  0.2697
  203EMI    H1' 3848   1.907   5.254   1.949 -0.5466 -0.1251 -0.9085
  203EMI    H1' 3849   2.069   5.320   1.931 -0.8628 -1.1743 -2.2580
  203EMI    H1' 3850   1.924   5.417   1.899  2.1229  1.9530 -3.0362
  203EMI    C1" 3851   1.877   5.271   1.398 -0.8241  0.2255  0.0998
  203EMI    H1" 3852   1.770   5.245   1.406  1.3116 -2.7518 -1.0494
  203EMI    H1" 3853   1.925   5.192   1.339 -1.3714  0.9564  2.1572
  203EMI    C2" 3854   1.883   5.398   1.312 -0.3912  0.1875 -0.1391
  203EMI    H2" 3855   1.991   5.422   1.300  3.0574 -3.5730 -3.3581
  203EMI    H2" 3856   1.845   5.373   1.212  0.9883  2.1260  1.0945
  203EMI    H2" 3857   1.831   5.476   1.373 -2.3651 -0.2001  2.1528
  204EMI     N1 3858   0.737   6.296   0.903 -0.2677  0.3777  0.3524
  204EMI     C2 3859   0.738   6.369   0.794 -0.3599  1.0586  0.1913
  204EMI     N3 3860   0.842   6.458   0.802  0.7870 -0.0443 -0.5730
  204EMI     C4 3861   0.903   6.429   0.924 -0.1669  0.3025 -0.1901
  204EMI     C5 3862   0.846   6.321   0.978  0.5145  0.1681  0.4897
  204EMI     H2 3863   0.672   6.344   0.709  1.7383 -0.6146 -0.4882
  204EMI     H4 3864   0.998   6.473   0.957 -0.7409  1.3297  0.4827
  204EMI     H5 3865   0.881   6.267   1.061  0.5875 -0.7604  0.1245
  204EMI    C1' 3866   0.873   6.564   0.714 -0.2764  0.3990  0.2559
  204EMI    H1' 3867   0.821   6.652   0.751  0.4348  1.3912 -0.7616
  204EMI    H1' 3868   0.981   6.571   0.707 -0.2199 -0.6597  0.9622
  204EMI    H1' 3869   0.837   6.546   0.619  0.8009  1.9394  1.8041
  204EMI    C1" 3870   0.636   6.198   0.944  0.3603 -0.3899 -0.5572
  204EMI    H1" 3871   0.538   6.250   0.927  1.1485  2.6520  0.3094
  204EMI    H1" 3872   0.645   6.179   1.053 -1.0653  1.4520 -1.2447
  204EMI    C2" 3873   0.627   6.063   0.875  0.0463 -0.2602 -0.3388
  204EMI    H2" 3874   0.541   6.012   0.901  1.3417  0.3049  0.5670
  204EMI    H2" 3875   0.636   6.076   0.766 -2.5793  1.4669  0.6992
  204EMI    H2" 3876   0.715   6.015   0.919 -0.7463  2.1791  2.1543
  205EMI     N1 3877   1.361   3.306   3.230 -0.1264  0.4885  0.6926
  205EMI     C2 3878   1.419   3.252   3.339 -0.4633  0.0578  0.6000
  205EMI     N3 3879   1.354   3.144   3.382  0.3775 -0.3715  0.2825
  205EMI     C4 3880   1.241   3.130   3.299  0.3037  1.3845 -0.0861
  205EMI     C5 3881   1.246   3.233   3.212  0.3479  0.4159 -0.6532
  205EMI     H2 3882   1.508   3.293   3.392 -2.5065  2.1670 -0.0430
  205EMI     H4 3883   1.171   3.047   3.306 -0.3219  0.0720  1.6059
  205EMI     H5 3884   1.172   3.251   3.132 -1.2310 -3.2128  0.6015
  205EMI    C1' 3885   1.379   3.059   3.503  0.4681 -0.0454 -1.2200
  205EMI    H1' 3886   1.483   3.038   3.493  0.0516  0.5686  0.0666
  205EMI    H1' 3887   1.354   3.122   3.591 -2.3726  1.4885 -0.7075
  205EMI    H1' 3888   1.312   2.969   3.496  3.5220 -3.0578  2.7836
  205EMI    C1" 3889   1.394   3.433   3.154 -1.0532  0.6408  0.5228
  205EMI    H1" 3890   1.454   3.501   3.216  0.6550 -0.9557 -0.0474
  205EMI    H1" 3891   1.303   3.474   3.111 -0.6579  0.8235 -1.3102
  205EMI    C2" 3892   1.486   3.384   3.044  0.0349 -1.0270 -0.3904
  205EMI    H2" 3893   1.509   3.473   2.984  0.0758  1.0541  0.6332
  205EMI    H2" 3894   1.578   3.352   3.095  0.8529  3.5250  1.0026
  205EMI    H2" 3895   1.437   3.308   2.976 -0.6229  0.7085  2.0336
  206EMI     N1 3896   5.818   0.389   3.661  0.2352 -0.0134 -0.2705
  206EMI     C2 3897   5.748   0.391   3.542  0.2564  0.7487 -1.0661
  206EMI     N3 3898   5.830   0.416   3.440 -0.1342 -0.6501 -0.2188
  206EMI     C4 3899   5.958   0.414   3.496 -0.5758  1.2510  0.1909
  206EMI     C5 3900   5.949   0.407   3.628  0.1931  0.2626 -0.1619
  206EMI     H2 3901   5.643   0.364   3.536 -1.8085 -0.6734 -2.1721
  206EMI     H4 3902   6.045   0.425   3.444 -3.9865 -1.8297 -1.0822
  206EMI     H5 3903   6.026   0.404   3.698 -0.3135 -1.9064 -1.8725
  206EMI    C1' 3904   5.810   0.428   3.297  0.0800 -0.5459 -0.0141
  206EMI    H1' 3905   5.790   0.529   3.257  0.4363  2.1870  1.3155
  206EMI    H1' 3906   5.895   0.396   3.250  0.9372  0.3267  1.2180
  206EMI    H1' 3907   5.726   0.364   3.265  1.2329 -0.9230 -1.1436
  206EMI    C1" 3908   5.772   0.388   3.802  0.4743 -0.5965 -0.0764
  206EMI    H1" 3909   5.665   0.400   3.813 -1.0032  2.9836 -1.0243
  206EMI    H1" 3910   5.818   0.461   3.866 -0.3510  3.3535 -0.8095
  206EMI    C2" 3911   5.796   0.245   3.858  0.4692 -0.0229 -0.3241
  206EMI    H2" 3912   5.880   0.193   3.826 -1.3843 -1.8804  0.3541
  206EMI    H2" 3913   5.799   0.251   3.972  2.0129  1.5052  1.2572
  206EMI    H2" 3914   5.702   0.191   3.862  1.0288 -0.0743 -1.3880
  207EMI     N1 3915   3.680   1.407   4.475  0.2952  0.0980 -0.1127
  207EMI     C2 3916   3.800   1.403   4.411 -0.6205  0.2029 -0.0558
  207EMI     N3 3917   3.897   1.460   4.487  0.8047  0.0022  0.3116
  207EMI     C4 3918   3.839   1.497   4.607  0.1635  0.1719  0.4916
  207EMI     C5 3919   3.704   1.477   4.593  0.4413 -0.4155  0.3546
  207EMI     H2 3920   3.820   1.367   4.311  0.2121 -1.7649  2.3329
  207EMI     H4 3921   3.903   1.547   4.689  0.3333 -0.2605  2.0984
  207EMI     H5 3922   3.639   1.523   4.664  1.4857 -0.6439  0.0286
  207EMI    C1' 3923   4.042   1.468   4.473 -0.2973 -0.6000  0.2231
  207EMI    H1' 3924   4.069   1.431   4.380  0.0296  0.1768 -2.4924
  207EMI    H1' 3925   4.071   1.573   4.470  0.0300  1.3017 -0.1921
  207EMI    H1' 3926   4.090   1.417   4.557 -0.7349  0.2118  1.7340
  207EMI    C1" 3927   3.543   1.359   4.435  0.1666 -0.1590  0.0957
  207EMI    H1" 3928   3.548   1.285   4.350  1.3569  2.3076  0.6639
  207EMI    H1" 3929   3.474   1.436   4.416  2.4770 -1.2327 -2.5038
  207EMI    C2" 3930   3.478   1.292   4.556 -0.5255 -0.7136  0.4692
  207EMI    H2" 3931   3.390   1.254   4.517  2.0444  2.5704  0.8347
  207EMI    H2" 3932   3.551   1.218   4.590  3.0831  0.5978  1.0278
  207EMI    H2" 3933   3.452   1.359   4.638  1.2489  0.8434  2.8187
  208EMI     N1 3934   3.817   3.071   3.922  0.6871  0.4054 -1.1785
  208EMI     C2 3935   3.904   3.005   4.006  0.0470  0.1478 -0.3093
  208EMI     N3 3936   3.858   2.882   4.036  0.1793  0.0231  0.2579
  208EMI     C4 3937   3.747   2.866   3.956 -0.4873  0.1570  0.2192
  208EMI     C5 3938   3.722   2.978   3.887  0.7896  0.5248 -0.3156
  208EMI     H2 3939   3.997   3.043   4.035  1.3481  1.1877  0.3315
  208EMI     H4 3940   3.699   2.768   3.949  1.1707 -1.9774  1.5448
  208EMI     H5 3941   3.644   2.992   3.815 -0.1400 -2.7167  3.7139
  208EMI    C1' 3942   3.911   2.779   4.119 -0.1555  0.1478 -0.1641
  208EMI    H1' 3943   3.941   2.682   4.071 -0.0784 -1.9036  0.0844
  208EMI    H1' 3944   4.002   2.818   4.170  2.2053  0.4972  2.0472
  208EMI    H1' 3945   3.846   2.764   4.206 -2.1265  1.7571  2.4349
  208EMI    C1" 3946   3.832   3.214   3.866 -0.7593 -0.1718  0.5869
  208EMI    H1" 3947   3.792   3.214   3.763 -0.0407 -0.8310 -0.8666
  208EMI    H1" 3948   3.936   3.234   3.856 -2.5534  3.2105 -0.1071
  208EMI    C2" 3949   3.770   3.309   3.961 -0.4799 -0.4257  0.2126
  208EMI    H2" 3950   3.817   3.300   4.058  1.7930 -1.5031  1.2116
  208EMI    H2" 3951   3.783   3.402   3.905 -1.0608  0.9944 -0.5615
  208EMI    H2" 3952   3.666   3.292   3.978 -0.8557  1.5071  1.0459
  209EMI     N1 3953   1.344   0.869   3.091 -0.3491 -0.1501 -0.1629
  209EMI     C2 3954   1.399   0.755   3.140 -0.5256 -0.2468 -0.1853
  209EMI     N3 3955   1.527   0.772   3.154 -0.2974 -1.2357  0.2276
  209EMI     C4 3956   1.562   0.901   3.119 -0.2760 -0.3399  0.2093
  209EMI     C5 3957   1.449   0.958   3.082 -0.8518 -1.1065  0.9986
  209EMI     H2 3958   1.349   0.662   3.146  2.9164  0.5887  0.8915
  209EMI     H4 3959   1.660   0.949   3.110  0.0979 -1.7031 -1.0077
  209EMI     H5 3960   1.451   1.052   3.042 -1.3956 -1.3601  2.6155
  209EMI    C1' 3961   1.627   0.678   3.198 -0.0855 -0.4512 -0.7731
  209EMI    H1' 3962   1.679   0.712   3.294 -1.0724 -1.5765  0.9446
  209EMI    H1' 3963   1.587   0.581   3.218  0.2288  1.8939  1.2706
  209EMI    H1' 3964   1.703   0.677   3.123  0.9583  0.8084  0.2660
  209EMI    C1" 3965   1.203   0.904   3.044 -1.1134  0.2513 -0.3564
  209EMI    H1" 3966   1.207   0.955   2.946  0.2581  2.3846  2.1919
  209EMI    H1" 3967   1.162   0.979   3.113  1.1414  1.3383  0.9543
  209EMI    C2" 3968   1.113   0.783   3.031  0.1112  0.2494  0.4555
  209EMI    H2" 3969   1.105   0.730   3.129  0.6121 -0.1026  0.3333
  209EMI    H2" 3970   1.012   0.824   3.014 -0.3324 -0.9356 -1.0798
  209EMI    H2" 3971   1.141   0.716   2.949  0.4215 -1.2357  1.5383
  210EMI     N1 3972   4.636   1.855   1.241  0.0308 -0.0477  0.1842
  210EMI     C2 3973   4.577   1.742   1.203  0.5923 -0.0338  0.8345
  210EMI     N3 3974   4.602   1.643   1.291  0.1349  0.4527 -0.1342
  210EMI     C4 3975   4.679   1.699   1.389 -0.3595  0.3970 -1.3082
  210EMI     C5 3976   4.699   1.829   1.360 -0.6067  0.5253 -0.5100
  210EMI     H2 3977   4.509   1.736   1.112  0.8562 -0.1195  0.9306
  210EMI     H4 3978   4.723   1.654   1.478 -1.0457 -1.3807 -1.1837
  210EMI     H5 3979   4.759   1.901   1.417  0.4187  2.3523 -0.5335
  210EMI    C1' 3980   4.552   1.505   1.286 -0.5359 -0.0124  0.1545
  210EMI    H1' 3981   4.612   1.435   1.349 -1.4672 -0.4900 -2.0460
  210EMI    H1' 3982   4.446   1.503   1.328 -2.3463 -0.1711  0.5961
  210EMI    H1' 3983   4.558   1.480   1.183  1.4336 -1.1310  1.7857
  210EMI    C1" 3984   4.620   1.990   1.183  0.4776 -0.1734  0.1537
  210EMI    H1" 3985   4.702   1.999   1.115  1.2511 -1.0599 -0.0547
  210EMI    H1" 3986   4.623   2.063   1.252  0.2738 -0.5318 -1.6432
  210EMI    C2" 3987   4.492   1.998   1.103 -0.9475  0.2561 -0.0388
  210EMI    H2" 3988   4.502   1.936   1.014 -1.4900 -0.8122 -2.3712
  210EMI    H2" 3989   4.407   1.968   1.168 -1.2556 -0.5581  1.5539
  210EMI    H2" 3990   4.470   2.103   1.079  0.4910  1.4199  1.8071
  211EMI     N1 3991   5.673   1.195   4.645  0.5332 -0.6424  0.1237
  211EMI     C2 3992   5.629   1.100   4.740 -0.5107 -0.2278  0.1530
  211EMI     N3 3993   5.735   1.032   4.789  0.1855 -0.0452  0.3974
  211EMI     C4 3994   5.842   1.063   4.711 -0.2305  0.1852 -0.2085
  211EMI     C5 3995   5.807   1.164   4.632 -0.2488 -0.1366 -0.2810
  211EMI     H2 3996   5.536   1.094   4.798  0.8119 -2.8560  0.5999
  211EMI     H4 3997   5.939   1.020   4.721  0.2932  0.4524  0.5065
  211EMI     H5 3998   5.881   1.216   4.570 -1.3741 -0.0800  3.7014
  211EMI    C1' 3999   5.735   0.945   4.907 -0.6813  0.4007  0.2209
  211EMI    H1' 4000   5.631   0.938   4.941  1.0639 -0.8218 -2.2305
  211EMI    H1' 4001   5.760   0.848   4.863  2.6172  0.1845  0.5176
  211EMI    H1' 4002   5.809   0.984   4.983 -2.0369 -0.2031  3.7147
  211EMI    C1" 4003   5.612   1.310   4.580 -0.0784  0.2426 -0.2121
  211EMI    H1" 4004   5.547   1.272   4.508 -1.6267 -0.9168 -2.0780
  211EMI    H1" 4005   5.673   1.378   4.532  0.2644  1.3853  3.0954
  211EMI    C2" 4006   5.520   1.384   4.683  0.3677  0.7510  0.6510
  211EMI    H2" 4007   5.568   1.387   4.783  1.9704 -0.3722  0.8189
  211EMI    H2" 4008   5.507   1.486   4.650  1.2708  1.5948  2.1256
  211EMI    H2" 4009   5.427   1.339   4.689  0.8116 -1.4101  0.0329
  212EMI     N1 4010   2.860   2.117   2.739 -0.6466  0.3433 -0.1033
  212EMI     C2 4011   2.853   2.102   2.604 -0.1457  0.0584 -0.1000
  212EMI     N3 4012   2.870   1.974   2.565 -0.1798  0.2787 -0.9446
  212EMI     C4 4013   2.872   1.900   2.684  0.5136 -0.1579  0.6816
  212EMI     C5 4014   2.869   1.987   2.787 -0.0809 -0.2696 -0.2768
  212EMI     H2 4015   2.848   2.187   2.535  1.2039 -0.4085 -0.9041
  212EMI     H4 4016   2.887   1.792   2.693 -2.2372 -0.6737  0.6803
  212EMI     H5 4017   2.863   1.958   2.892  1.7727  2.4367 -0.3591
  212EMI    C1' 4018   2.841   1.905   2.436  0.4364  0.1402  0.0535
  212EMI    H1' 4019   2.906   1.941   2.358  1.5736  1.1433  0.0657
  212EMI    H1' 4020   2.864   1.798   2.438  1.9955  3.3350 -1.8983
  212EMI    H1' 4021   2.743   1.926   2.391 -0.9768 -0.7736 -3.4927
  212EMI    C1" 4022   2.863   2.237   2.826 -0.0316  0.8910 -0.2915
  212EMI    H1" 4023   2.830   2.212   2.929 -0.7191  1.5549  0.1582
  212EMI    H1" 4024   2.804   2.322   2.787  0.7325 -1.2457 -0.5062
  212EMI    C2" 4025   3.006   2.291   2.838  0.0768  0.1661  0.2395
  212EMI    H2" 4026   3.021   2.379   2.901 -0.2505 -2.3160 -0.6594
  212EMI    H2" 4027   3.080   2.212   2.860 -0.0081 -1.4755 -0.3651
  212EMI    H2" 4028   3.043   2.337   2.747 -1.1438  0.3210  0.0758
  213EMI     N1 4029   3.508   5.904   4.674 -0.7328  0.3045  0.0717
  213EMI     C2 4030   3.585   5.842   4.583 -0.2782  0.4638  0.1651
  213EMI     N3 4031   3.547   5.872   4.456  0.0048  0.1427 -0.4966
  213EMI     C4 4032   3.437   5.951   4.468  0.9460 -0.2552  0.3048
  213EMI     C5 4033   3.413   5.979   4.602 -0.2176  0.1834  0.5000
  213EMI     H2 4034   3.679   5.784   4.600 -0.7849 -2.6860  3.3171
  213EMI     H4 4035   3.372   5.989   4.389 -0.7988 -0.5983 -2.5118
  213EMI     H5 4036   3.334   6.040   4.642 -1.6493  0.1422  1.3407
  213EMI    C1' 4037   3.589   5.811   4.327 -0.6253 -0.6798  0.2562
  213EMI    H1' 4038   3.497   5.758   4.296  2.0464 -0.0321 -1.1332
  213EMI    H1' 4039   3.632   5.884   4.262  1.5835  0.5658  2.8087
  213EMI    H1' 4040   3.667   5.739   4.346 -1.2336  1.3338  1.1504
  213EMI    C1" 4041   3.515   5.922   4.822 -0.7215  0.4453  0.0915
  213EMI    H1" 4042   3.543   6.027   4.847 -1.7913 -1.0344  0.7905
  213EMI    H1" 4043   3.595   5.854   4.867  1.8536 -1.2166 -1.0238
  213EMI    C2" 4044   3.374   5.890   4.882  0.6760  0.3310 -0.3685
  213EMI    H2" 4045   3.354   5.782   4.883  0.8062 -3.0292  0.4930
  213EMI    H2" 4046   3.379   5.925   4.986 -0.5030 -0.0512  2.8371
  213EMI    H2" 4047   3.298   5.944   4.832  0.1569  1.8513  1.7944
  214EMI     N1 4048   2.734   6.303   1.400  0.5068  0.4799  0.1408
  214EMI     C2 4049   2.665   6.193   1.441 -0.5831  0.9234 -0.8160
  214EMI     N3 4050   2.730   6.143   1.547  0.3757 -0.1962  0.4142
  214EMI     C4 4051   2.835   6.220   1.571  0.4204  0.0953 -0.3202
  214EMI     C5 4052   2.835   6.324   1.484  0.5393 -0.4215 -0.3850
  214EMI     H2 4053   2.570   6.171   1.401 -1.5490  0.5589 -1.6655
  214EMI     H4 4054   2.901   6.201   1.656 -0.1464  1.1273  0.7799
  214EMI     H5 4055   2.908   6.406   1.486  0.9302 -0.2775  0.4253
  214EMI    C1' 4056   2.686   6.034   1.630 -0.3806  0.2284 -0.1145
  214EMI    H1' 4057   2.581   6.006   1.609  1.2338  0.3327  2.3080
  214EMI    H1' 4058   2.752   5.950   1.624  0.4356  1.6886  1.7016
  214EMI    H1' 4059   2.692   6.067   1.735 -1.5614 -0.7151  0.1047
  214EMI    C1" 4060   2.699   6.387   1.288 -0.4174 -0.0140 -0.4055
  214EMI    H1" 4061   2.787   6.449   1.257  0.3497  3.3336 -0.6277
  214EMI    H1" 4062   2.616   6.455   1.317 -1.0153 -0.9508 -0.9639
  214EMI    C2" 4063   2.655   6.330   1.156 -0.2416  0.1697 -0.6789
  214EMI    H2" 4064   2.731   6.275   1.108 -0.1840 -2.5664  1.2871
  214EMI    H2" 4065   2.576   6.259   1.160  1.8755  0.7822 -1.5243
  214EMI    H2" 4066   2.617   6.411   1.088 -0.3720  0.1492 -0.0629
  215EMI     N1 4067   0.208   2.449   0.942 -0.1901 -0.6375  0.0578
  215EMI     C2 4068   0.262   2.460   0.820  0.2825  0.4091  0.3462
  215EMI     N3 4069   0.264   2.344   0.756  0.0427  0.3474 -0.3667
  215EMI     C4 4070   0.191   2.259   0.840 -0.4265  0.7766 -1.5064
  215EMI     C5 4071   0.168   2.322   0.955 -0.2008  0.5130 -0.6710
  215EMI     H2 4072   0.308   2.552   0.790 -0.3130 -1.4322 -3.2164
  215EMI     H4 4073   0.154   2.159   0.822  1.6078 -0.2471 -1.2541
  215EMI     H5 4074   0.109   2.289   1.035 -1.1514  1.1961  1.5415
  215EMI    C1' 4075   0.313   2.308   0.626 -0.8254 -0.0829  0.2744
  215EMI    H1' 4076   0.422   2.324   0.628  3.3368  1.4562  1.8305
  215EMI    H1' 4077   0.281   2.206   0.605 -1.0885  0.3757 -0.0501
  215EMI    H1' 4078   0.265   2.370   0.547 -0.7826  2.0500  1.3117
  215EMI    C1" 4079   0.189   2.547   1.055  0.0475 -0.0436 -0.8024
  215EMI    H1" 4080   0.192   2.484   1.146  2.2023 -0.7176 -0.7045
  215EMI    H1" 4081   0.090   2.596   1.057 -0.1431  1.5411  1.2763
  215EMI    C2" 4082   0.295   2.654   1.061 -0.3973  0.2378 -0.5218
  215EMI    H2" 4083   0.396   2.606   1.047  0.8945  1.6288  1.0334
  215EMI    H2" 4084   0.268   2.725   0.984 -0.1985 -0.4151  0.5197
  215EMI    H2" 4085   0.298   2.707   1.160 -1.3863 -0.7931  0.7395
  216EMI     N1 4086   4.037   4.507   0.995 -0.2166 -0.2935 -0.4296
  216EMI     C2 4087   4.157   4.566   1.026  0.3204 -0.0343 -0.3328
  216EMI     N3 4088   4.259   4.522   0.945 -0.2937 -0.3636 -0.6212
  216EMI     C4 4089   4.203   4.428   0.860  0.6416  0.0959 -0.1992
  216EMI     C5 4090   4.068   4.416   0.895 -0.0427 -0.1926 -0.8806
  216EMI     H2 4091   4.179   4.622   1.120  1.4774  1.2898 -1.2148
  216EMI     H4 4092   4.261   4.369   0.793 -0.4393  1.3044  0.9047
  216EMI     H5 4093   3.996   4.344   0.854  0.6752  1.3151  0.1672
  216EMI    C1' 4094   4.403   4.555   0.950 -0.4886  0.0429  0.3324
  216EMI    H1' 4095   4.454   4.465   0.927 -1.6644 -2.4860 -0.0807
  216EMI    H1' 4096   4.435   4.633   0.882 -0.4902  0.8084 -2.0653
  216EMI    H1' 4097   4.441   4.593   1.042  0.6299  0.4589  1.4948
  216EMI    C1" 4098   3.898   4.521   1.056  0.2555 -0.3496  0.0237
  216EMI    H1" 4099   3.836   4.562   0.979  0.9870  0.3131  0.5286
  216EMI    H1" 4100   3.894   4.591   1.139 -0.5208  1.0549 -1.5877
  216EMI    C2" 4101   3.830   4.390   1.103  0.1420 -0.2621 -0.2781
  216EMI    H2" 4102   3.822   4.321   1.024  3.2889 -0.9906 -1.2721
  216EMI    H2" 4103   3.882   4.355   1.191  0.4948  0.9092 -0.6785
  216EMI    H2" 4104   3.720   4.411   1.127  0.7662 -0.2647 -1.3965
  217EMI     N1 4105   4.557   0.063   6.240  0.4013 -0.5545  0.1090
  217EMI     C2 4106   4.522  -0.041   6.163 -0.3388  0.6734 -0.8932
  217EMI     N3 4107   4.531  -0.164   6.230  0.3875 -0.4943  0.1151
  217EMI     C4 4108   4.577  -0.128   6.359  0.2609 -0.4400 -0.3788
  217EMI     C5 4109   4.579   0.004   6.364  0.1056  0.4130  0.2246
  217EMI     H2 4110   4.501  -0.029   6.064 -0.3170  3.8076 -0.5668
  217EMI     H4 4111   4.593  -0.206   6.435  0.9227 -0.6263 -1.2144
  217EMI     H5 4112   4.614   0.054   6.457 -0.9751  3.3671 -1.2171
  217EMI    C1' 4113   4.523  -0.298   6.180  0.0663 -0.1139  0.1167
  217EMI    H1' 4114   4.601  -0.314   6.100  0.1328 -2.6568 -0.1072
  217EMI    H1' 4115   4.539  -0.376   6.256 -0.9348  3.2268  0.3366
  217EMI    H1' 4116   4.421  -0.327   6.148  1.0669 -1.3289  2.0388
  217EMI    C1" 4117   4.566   0.209   6.206 -0.5559  0.3880  0.5361
  217EMI    H1" 4118   4.489   0.259   6.264 -0.0879  0.9036 -1.0113
  217EMI    H1" 4119   4.544   0.221   6.097  1.4353 -1.8345 -0.5213
  217EMI    C2" 4120   4.707   0.261   6.245  0.3828  0.2827 -0.0474
  217EMI    H2" 4121   4.728   0.356   6.198 -0.0993 -1.7245  1.8368
  217EMI    H2" 4122   4.708   0.268   6.354  1.6137  1.6937  0.0367
  217EMI    H2" 4123   4.788   0.187   6.224  2.0630 -1.2307 -2.1174
  218EMI     N1 4124   4.180   4.180   2.991  0.2832 -0.7638  0.1839
  218EMI     C2 4125   4.227   4.290   2.931 -0.1709 -0.2258  0.1633
  218EMI     N3 4126   4.154   4.397   2.964 -0.0695 -0.2775 -0.2453
  218EMI     C4 4127   4.055   4.351   3.054  0.8077  0.4465 -0.2490
  218EMI     C5 4128   4.075   4.216   3.072 -0.0598  0.2920  0.2400
  218EMI     H2 4129   4.323   4.288   2.879 -0.0168 -0.0407  2.0104
  218EMI     H4 4130   3.976   4.402   3.101 -0.0226  4.1931 -0.5354
  218EMI     H5 4131   4.025   4.151   3.151 -0.4849  1.7879 -2.8057
  218EMI    C1' 4132   4.179   4.537   2.922 -0.3721 -0.5725 -0.3090
  218EMI    H1' 4133   4.267   4.546   2.861 -0.5043  2.1473 -2.0677
  218EMI    H1' 4134   4.088   4.576   2.872  1.3493  1.3029 -0.9186
  218EMI    H1' 4135   4.205   4.594   3.007  2.6145 -0.0643 -1.9100
  218EMI    C1" 4136   4.219   4.036   2.984 -0.1287  0.3498 -0.5634
  218EMI    H1" 4137   4.122   3.988   3.003 -1.2252 -1.8507 -0.6326
  218EMI    H1" 4138   4.292   4.015   3.058 -0.5461 -0.3108 -0.0071
  218EMI    C2" 4139   4.266   3.995   2.840  0.6673  0.2366 -0.3998
  218EMI    H2" 4140   4.325   4.066   2.791  0.8049 -0.4943  1.2984
  218EMI    H2" 4141   4.303   3.896   2.845 -0.3589 -1.0308  0.4768
  218EMI    H2" 4142   4.173   3.993   2.779  0.8657  2.5471 -0.4622
  219EMI     N1 4143   0.009   1.342   2.971 -0.0852 -0.0058 -0.2814
  219EMI     C2 4144   0.011   1.256   2.876 -0.5415  0.9662 -0.0331
  219EMI     N3 4145   0.007   1.317   2.753  0.5328 -0.2495  0.1312
  219EMI     C4 4146  -0.022   1.448   2.780  0.3928 -0.3750 -0.3100
  219EMI     C5 4147  -0.014   1.465   2.914 -1.1675 -0.2999 -0.1532
  219EMI     H2 4148   0.023   1.146   2.883 -1.3356 -2.7086 -0.2166
  219EMI     H4 4149  -0.037   1.524   2.709  1.7031  0.8571 -0.7010
  219EMI     H5 4150  -0.028   1.558   2.976 -0.7995 -0.2332 -1.7557
  219EMI    C1' 4151   0.006   1.260   2.617 -0.7756  0.5994  0.4246
  219EMI    H1' 4152   0.102   1.209   2.606  1.0423 -0.9471 -0.8734
  219EMI    H1' 4153  -0.080   1.193   2.610 -0.7806 -2.2325 -0.8368
  219EMI    H1' 4154   0.001   1.342   2.542 -0.0663 -0.1512  0.0523
  219EMI    C1" 4155   0.040   1.341   3.115 -0.0573  0.1355  0.7676
  219EMI    H1" 4156  -0.052   1.320   3.171 -1.5835 -1.4422  4.7281
  219EMI    H1" 4157   0.071   1.444   3.141 -0.7325 -0.8299 -1.2717
  219EMI    C2" 4158   0.144   1.245   3.156  0.4629 -0.0348  0.2042
  219EMI    H2" 4159   0.104   1.146   3.149 -3.7552  3.6644  2.0821
  219EMI    H2" 4160   0.224   1.255   3.087  0.0191 -0.0158 -1.6635
  219EMI    H2" 4161   0.174   1.251   3.256  2.2062 -1.4221  0.0368
  220EMI     N1 4162   2.159   1.485   4.279 -0.2032  0.9431 -0.8959
  220EMI     C2 4163   2.239   1.501   4.177 -0.4823  0.0455 -0.2277
  220EMI     N3 4164   2.291   1.625   4.175 -0.1195 -0.4773 -0.2760
  220EMI     C4 4165   2.251   1.681   4.292  0.1689  0.0649  0.2271
  220EMI     C5 4166   2.172   1.596   4.361  0.0924 -0.0779  0.1505
  220EMI     H2 4167   2.247   1.431   4.095  2.5382 -1.3260 -1.2046
  220EMI     H4 4168   2.281   1.780   4.325  1.5515 -1.2917 -3.0512
  220EMI     H5 4169   2.125   1.610   4.456  0.1084 -0.2677  0.3266
  220EMI    C1' 4170   2.362   1.687   4.062 -0.0938 -0.1454 -0.0114
  220EMI    H1' 4171   2.410   1.777   4.103 -1.9141  2.0625 -1.7330
  220EMI    H1' 4172   2.433   1.614   4.027 -3.9997 -1.1186 -0.6648
  220EMI    H1' 4173   2.307   1.719   3.980 -0.5122 -0.2440  1.0834
  220EMI    C1" 4174   2.070   1.373   4.325 -0.2192 -0.3382  0.3742
  220EMI    H1" 4175   2.009   1.354   4.238 -0.0184  0.5208 -1.0615
  220EMI    H1" 4176   2.008   1.403   4.403  1.5004  1.0927 -2.0469
  220EMI    C2" 4177   2.151   1.251   4.365 -0.8013 -0.1517  0.3181
  220EMI    H2" 4178   2.105   1.163   4.413 -2.0368  1.7194  1.8881
  220EMI    H2" 4179   2.194   1.222   4.275 -2.0896 -1.9290  3.8160
  220EMI    H2" 4180   2.215   1.297   4.439 -1.9451  1.7212 -1.4359
  221EMI     N1 4181   4.380   3.233   0.689 -0.4606 -0.0660  0.7892
  221EMI     C2 4182   4.506   3.219   0.744  0.1240  0.0006 -0.7455
  221EMI     N3 4183   4.500   3.282   0.866 -0.4089  0.3943  0.4195
  221EMI     C4 4184   4.373   3.328   0.893  0.5026 -0.3971 -0.5372
  221EMI     C5 4185   4.301   3.298   0.783 -0.2341 -0.1285 -0.0510
  221EMI     H2 4186   4.599   3.190   0.696  1.0893  1.7607 -1.2095
  221EMI     H4 4187   4.346   3.384   0.986 -0.9408  0.9732  1.3349
  221EMI     H5 4188   4.199   3.332   0.760 -0.7712 -1.4204 -1.3218
  221EMI    C1' 4189   4.600   3.312   0.968 -0.3595  0.2815 -0.5187
  221EMI    H1' 4190   4.700   3.306   0.915  1.3084  0.4461 -0.7756
  221EMI    H1' 4191   4.592   3.412   1.009 -2.8318  0.9202  1.4860
  221EMI    H1' 4192   4.585   3.247   1.053  1.3677  0.8551  1.0165
  221EMI    C1" 4193   4.322   3.187   0.559 -0.6431 -1.2315  0.0553
  221EMI    H1" 4194   4.402   3.138   0.508  1.7873 -1.0011 -0.7522
  221EMI    H1" 4195   4.301   3.260   0.487  1.5030 -0.8600 -0.2261
  221EMI    C2" 4196   4.205   3.093   0.570  0.0428 -0.5206  0.1508
  221EMI    H2" 4197   4.182   3.056   0.476 -2.8189 -0.1520  2.8739
  221EMI    H2" 4198   4.236   3.012   0.643  1.1894  0.1164  0.1062
  221EMI    H2" 4199   4.128   3.159   0.608 -0.2178 -0.5159  1.8894
  222EMI     N1 4200   0.501   0.691   2.322 -0.2511 -0.3071  0.3423
  222EMI     C2 4201   0.368   0.667   2.303  0.3862 -0.5148  0.2065
  222EMI     N3 4202   0.327   0.566   2.388  0.0448 -0.4634 -0.0619
  222EMI     C4 4203   0.441   0.525   2.458  0.0261 -0.0945 -0.3375
  222EMI     C5 4204   0.549   0.602   2.416 -0.0047 -0.0428  0.6519
  222EMI     H2 4205   0.301   0.698   2.225  3.3312  0.1819  1.1368
  222EMI     H4 4206   0.440   0.443   2.525  2.4391  0.6913  0.9308
  222EMI     H5 4207   0.655   0.599   2.440  0.5325  0.2146 -0.5205
  222EMI    C1' 4208   0.199   0.486   2.397 -0.8917  0.4639  0.1636
  222EMI    H1' 4209   0.118   0.549   2.383  0.4009  2.7706  0.6900
  222EMI    H1' 4210   0.197   0.403   2.330 -0.0787 -2.2245  1.8952
  222EMI    H1' 4211   0.185   0.454   2.501 -0.9988 -0.1433  1.3922
  222EMI    C1" 4212   0.596   0.781   2.252 -0.2778  0.0785  0.4775
  222EMI    H1" 4213   0.645   0.730   2.170  0.2190  1.2339  0.0132
  222EMI    H1" 4214   0.670   0.820   2.323 -2.0442  0.8848  0.1448
  222EMI    C2" 4215   0.512   0.894   2.191 -0.4955  0.5939  0.6547
  222EMI    H2" 4216   0.465   0.957   2.269 -0.0467  1.5745  1.5844
  222EMI    H2" 4217   0.574   0.962   2.131 -0.9487 -1.7682  1.9967
  222EMI    H2" 4218   0.447   0.840   2.123  1.6596 -2.2960 -0.3830
  223EMI     N1 4219   0.726   5.444   5.056  0.3623 -0.0996  0.7253
  223EMI     C2 4220   0.776   5.503   4.952 -1.1738  0.2353 -0.2582
  223EMI     N3 4221   0.892   5.439   4.909 -0.0881  0.2426 -0.6640
  223EMI     C4 4222   0.914   5.339   5.002 -0.3910  0.5348  0.1844
  223EMI     C5 4223   0.813   5.343   5.093  0.0053 -0.1531  0.1590
  223EMI     H2 4224   0.739   5.590   4.900  3.3756 -0.0237 -1.7533
  223EMI     H4 4225   1.001   5.282   4.997 -0.1447 -0.0988 -0.7370
  223EMI     H5 4226   0.805   5.282   5.182 -3.0416  0.4474  2.1435
  223EMI    C1' 4227   0.986   5.474   4.804 -0.6527 -0.7563  0.4589
  223EMI    H1' 4228   1.063   5.401   4.798  2.4164  0.3972 -0.8234
  223EMI    H1' 4229   0.943   5.465   4.705 -0.2346 -3.3264 -0.0139
  223EMI    H1' 4230   1.029   5.573   4.817 -0.6898  0.7873 -3.0032
  223EMI    C1" 4231   0.597   5.465   5.116 -0.0060  0.8410  0.6246
  223EMI    H1" 4232   0.555   5.548   5.060  1.2596 -1.8725 -1.3921
  223EMI    H1" 4233   0.608   5.493   5.223  1.0745  2.7844  0.0499
  223EMI    C2" 4234   0.506   5.347   5.092 -0.1709 -0.2871  0.1820
  223EMI    H2" 4235   0.537   5.259   5.158  0.4796 -1.9337  0.0014
  223EMI    H2" 4236   0.406   5.382   5.102  1.1565 -1.7955  0.2794
  223EMI    H2" 4237   0.514   5.318   4.984  0.0991 -2.4950 -1.3431
  224EMI     N1 4238   0.570   5.448   1.354 -0.4389  0.2867  0.0971
  224EMI     C2 4239   0.576   5.485   1.222 -0.0359  0.6775  0.3705
  224EMI     N3 4240   0.542   5.616   1.217 -0.4300  0.5035  0.5468
  224EMI     C4 4241   0.513   5.659   1.345  0.6243  0.3922  0.5205
  224EMI     C5 4242   0.523   5.554   1.430  0.0733  0.7561 -0.8322
  224EMI     H2 4243   0.607   5.411   1.145 -2.3669 -0.3735 -0.9238
  224EMI     H4 4244   0.488   5.767   1.365 -2.4414  0.7609  1.6139
  224EMI     H5 4245   0.512   5.548   1.539 -0.1976  0.0139  0.4610
  224EMI    C1' 4246   0.552   5.709   1.106  0.0872 -0.2236  0.0971
  224EMI    H1' 4247   0.627   5.678   1.037  0.1040 -1.1969 -1.2997
  224EMI    H1' 4248   0.461   5.705   1.044  0.1703  2.2200  1.6867
  224EMI    H1' 4249   0.570   5.809   1.149  0.0990 -0.6834  0.2059
  224EMI    C1" 4250   0.631   5.325   1.420 -0.0781 -0.8697  0.3315
  224EMI    H1" 4251   0.674   5.357   1.519 -0.7203  2.2822 -1.1787
  224EMI    H1" 4252   0.708   5.274   1.360  0.9624 -0.0511 -0.9432
  224EMI    C2" 4253   0.517   5.232   1.450  0.5858 -0.0319 -0.0772
  224EMI    H2" 4254   0.459   5.283   1.527  0.9056  0.5515 -1.6543
  224EMI    H2" 4255   0.449   5.222   1.364 -1.5882  0.7031  1.2296
  224EMI    H2" 4256   0.562   5.136   1.479  2.1999  0.9511  0.9236
  225EMI     N1 4257   2.125   4.977   5.304 -0.2805  0.5534 -0.5068
  225EMI     C2 4258   2.242   4.916   5.282  0.2468  0.6012  0.9173
  225EMI     N3 4259   2.228   4.837   5.181 -0.0342  0.3068 -0.7551
  225EMI     C4 4260   2.102   4.854   5.134  0.0834  0.4319 -0.1048
  225EMI     C5 4261   2.038   4.937   5.209  0.5145 -0.0533 -0.5716
  225EMI     H2 4262   2.330   4.935   5.334 -0.6819  1.8418 -1.2569
  225EMI     H4 4263   2.053   4.802   5.046  1.0926 -0.3296  1.7616
  225EMI     H5 4264   1.935   4.963   5.199  3.8403 -0.0692  0.6094
  225EMI    C1' 4265   2.318   4.737   5.122  0.0163  0.1337  0.1239
  225EMI    H1' 4266   2.291   4.632   5.153 -0.2511 -1.2342 -2.1398
  225EMI    H1' 4267   2.302   4.747   5.012  0.7731 -0.5078 -1.9594
  225EMI    H1' 4268   2.419   4.769   5.145  0.2440  1.5245  0.1886
  225EMI    C1" 4269   2.091   5.079   5.409 -0.0183 -0.2657  0.1450
  225EMI    H1" 4270   1.994   5.125   5.384  0.7360  2.5930  0.8118
  225EMI    H1" 4271   2.167   5.156   5.390 -1.5750  0.1032 -2.2058
  225EMI    C2" 4272   2.112   5.016   5.552 -0.4041 -0.5772  0.9911
  225EMI    H2" 4273   2.072   5.082   5.626 -0.8931  0.7038 -0.9163
  225EMI    H2" 4274   2.070   4.915   5.548 -0.0582  0.1459  1.2437
  225EMI    H2" 4275   2.215   5.022   5.580 -0.9430  1.6974 -2.3661
  226EMI     N1 4276   3.276   1.335   3.051 -0.4258  0.0892  0.1211
  226EMI     C2 4277   3.285   1.356   2.919 -0.2209 -0.7743  0.4394
  226EMI     N3 4278   3.190   1.442   2.871 -0.2945  0.2147 -0.3411
  226EMI     C4 4279   3.121   1.484   2.981  0.8245 -0.3368 -0.1333
  226EMI     C5 4280   3.173   1.420   3.090 -0.0238  0.1130  0.9048
  226EMI     H2 4281   3.342   1.307   2.847  0.4671 -0.4361  0.3403
  226EMI     H4 4282   3.028   1.546   2.977 -2.1467 -0.3267  2.6052
  226EMI     H5 4283   3.135   1.430   3.196 -2.1838  2.0356 -0.1135
  226EMI    C1' 4284   3.147   1.452   2.732  0.3512 -0.2097 -0.7541
  226EMI    H1' 4285   3.219   1.513   2.679  0.3626  0.6202  0.8355
  226EMI    H1' 4286   3.147   1.357   2.681 -2.1364  0.8419  0.0054
  226EMI    H1' 4287   3.050   1.504   2.714 -0.4036  2.5063  1.4855
  226EMI    C1" 4288   3.361   1.257   3.147 -0.0792 -0.1763 -0.0897
  226EMI    H1" 4289   3.363   1.305   3.241  0.9920  0.0397  2.5071
  226EMI    H1" 4290   3.468   1.257   3.114  0.2531  1.1697 -0.7991
  226EMI    C2" 4291   3.316   1.110   3.158  0.2568 -0.2605  0.0922
  226EMI    H2" 4292   3.369   1.032   3.102  1.1251  0.4497 -0.0540
  226EMI    H2" 4293   3.338   1.081   3.263  2.1853 -0.7129 -1.4811
  226EMI    H2" 4294   3.209   1.111   3.143  2.1445  0.7883  0.1702
  227EMI     N1 4295   1.431   2.084   3.470 -0.6845 -0.0857  0.2371
  227EMI     C2 4296   1.465   1.955   3.460  0.9559  1.1834  1.0415
  227EMI     N3 4297   1.443   1.893   3.580  0.0327 -0.2429  0.9013
  227EMI     C4 4298   1.386   1.989   3.663  0.3622  0.2327  0.3404
  227EMI     C5 4299   1.378   2.108   3.596 -0.0318  0.0893  1.0800
  227EMI     H2 4300   1.528   1.919   3.377  2.5962 -0.1949  1.5457
  227EMI     H4 4301   1.347   1.970   3.760 -0.4580 -2.1757 -5.3313
  227EMI     H5 4302   1.336   2.204   3.629  1.1462 -1.8808  0.5291
  227EMI    C1' 4303   1.464   1.753   3.618  0.1093  0.3420 -0.5603
  227EMI    H1' 4304   1.397   1.724   3.704 -0.5510  1.4136  1.4953
  227EMI    H1' 4305   1.424   1.697   3.531  3.7094 -1.6297 -1.8222
  227EMI    H1' 4306   1.573   1.733   3.639  2.4029 -0.5133 -0.1760
  227EMI    C1" 4307   1.429   2.195   3.367  0.6643 -0.1282 -0.0719
  227EMI    H1" 4308   1.384   2.284   3.407  3.4867  1.2090  0.0148
  227EMI    H1" 4309   1.367   2.157   3.290 -0.2377 -3.1030  0.8121
  227EMI    C2" 4310   1.567   2.236   3.311  0.0752 -0.3302 -0.0427
  227EMI    H2" 4311   1.622   2.141   3.287 -1.7439 -3.6552  2.4363
  227EMI    H2" 4312   1.552   2.301   3.229 -0.5639 -0.7770  1.1065
  227EMI    H2" 4313   1.611   2.295   3.387 -0.2291  1.6502 -1.8717
  228EMI     N1 4314   4.400   1.648   3.398  0.0123 -0.0984  0.0749
  228EMI     C2 4315   4.263   1.632   3.408 -0.0355  0.1489 -0.1503
  228EMI     N3 4316   4.206   1.750   3.376 -0.5367  0.2466  0.1120
  228EMI     C4 4317   4.308   1.836   3.339 -0.4489 -0.1759 -0.2350
  228EMI     C5 4318   4.427   1.779   3.360  0.2187 -0.3844  0.6019
  228EMI     H2 4319   4.211   1.541   3.442  2.4795  1.6436  1.0827
  228EMI     H4 4320   4.294   1.936   3.313  0.5820 -1.4226  2.9097
  228EMI     H5 4321   4.522   1.826   3.346  0.1484  0.4460  0.8898
  228EMI    C1' 4322   4.062   1.771   3.361  0.0211 -0.5620 -0.6190
  228EMI    H1' 4323   4.047   1.849   3.286 -0.1808 -1.4637  0.6076
  228EMI    H1' 4324   4.016   1.684   3.315 -2.7353 -0.1175 -3.8817
  228EMI    H1' 4325   4.002   1.802   3.450 -0.3647 -1.0572 -2.1777
  228EMI    C1" 4326   4.510   1.547   3.425  0.0289 -0.2344  0.4225
  228EMI    H1" 4327   4.599   1.565   3.366  3.7883  0.6158 -0.9433
  228EMI    H1" 4328   4.478   1.443   3.401 -1.5905 -0.9593 -3.3567
  228EMI    C2" 4329   4.564   1.550   3.564  0.0867  0.3657 -0.1221
  228EMI    H2" 4330   4.583   1.654   3.592  0.0562  0.6878  3.9443
  228EMI    H2" 4331   4.491   1.512   3.636 -1.9008 -1.8059 -2.2261
  228EMI    H2" 4332   4.654   1.484   3.571  1.9721  0.0149  1.4337
  229EMI     N1 4333   3.013   0.718   2.889  0.4218 -0.4664  0.4873
  229EMI     C2 4334   3.008   0.687   3.019  0.5192  0.3404 -0.1289
  229EMI     N3 4335   3.133   0.666   3.066  0.2484 -0.1531  0.1391
  229EMI     C4 4336   3.221   0.705   2.970  0.5812  0.1619  0.0569
  229EMI     C5 4337   3.146   0.724   2.861 -0.2598  0.3732  0.0046
  229EMI     H2 4338   2.919   0.688   3.079  0.3978 -0.2760  0.9258
  229EMI     H4 4339   3.324   0.706   2.986 -0.3998  0.3118  0.3486
  229EMI     H5 4340   3.179   0.755   2.767  0.9671  0.9041 -0.8107
  229EMI    C1' 4341   3.178   0.637   3.207 -0.0951  0.3038 -0.5857
  229EMI    H1' 4342   3.154   0.723   3.258 -0.6253 -3.9629 -0.5697
  229EMI    H1' 4343   3.131   0.552   3.254 -0.8214 -1.4976  1.5896
  229EMI    H1' 4344   3.280   0.603   3.210 -0.3417  0.6783 -0.9273
  229EMI    C1" 4345   2.904   0.741   2.784  1.0488  0.1613 -0.3583
  229EMI    H1" 4346   2.945   0.762   2.690  0.9042 -0.0391 -0.5974
  229EMI    H1" 4347   2.840   0.827   2.818 -0.2746 -0.2522  1.1900
  229EMI    C2" 4348   2.814   0.624   2.764 -0.0820 -0.4213  0.4923
  229EMI    H2" 4349   2.761   0.587   2.860  1.1659 -2.5931  0.5764
  229EMI    H2" 4350   2.741   0.646   2.685  1.1472  0.3198  0.7548
  229EMI    H2" 4351   2.873   0.542   2.724  0.4771  1.7227 -1.5186
  230EMI     N1 4352   5.260   4.512   0.827 -0.5224 -0.1346 -0.5652
  230EMI     C2 4353   5.135   4.458   0.842 -0.3192 -0.3546  0.4889
  230EMI     N3 4354   5.150   4.325   0.844 -0.5798 -0.2451 -0.3271
  230EMI     C4 4355   5.280   4.294   0.844  0.5828 -0.0416 -0.5277
  230EMI     C5 4356   5.351   4.410   0.838 -0.0106  0.6408  0.0558
  230EMI     H2 4357   5.032   4.507   0.827  1.2892 -1.0992 -2.2392
  230EMI     H4 4358   5.322   4.193   0.833 -0.3007 -0.1810  0.1552
  230EMI     H5 4359   5.458   4.427   0.827 -1.1826 -0.5426  1.8895
  230EMI    C1' 4360   5.044   4.219   0.827  0.3489  0.4091  0.0583
  230EMI    H1' 4361   4.986   4.201   0.915  2.2376  2.1208  2.5745
  230EMI    H1' 4362   4.978   4.247   0.741 -0.1884 -0.8057 -2.3908
  230EMI    H1' 4363   5.099   4.135   0.792 -2.6907  0.2522 -3.7762
  230EMI    C1" 4364   5.298   4.653   0.805 -0.2607 -0.3681 -0.5882
  230EMI    H1" 4365   5.398   4.676   0.847 -0.8811 -1.0547 -0.6804
  230EMI    H1" 4366   5.217   4.705   0.852 -2.2868  3.0255  1.7614
  230EMI    C2" 4367   5.302   4.693   0.654 -0.1478 -0.1194 -0.5517
  230EMI    H2" 4368   5.345   4.792   0.644  0.6668  0.9760 -1.9396
  230EMI    H2" 4369   5.369   4.621   0.601  1.3038  0.9423  0.0715
  230EMI    H2" 4370   5.194   4.682   0.621 -2.3043 -0.6767 -0.8982
  231EMI     N1 4371   2.180   0.553   5.938  0.2377 -0.3941  0.3381
  231EMI     C2 4372   2.052   0.584   5.902 -0.0259 -1.0440  0.6596
  231EMI     N3 4373   2.053   0.665   5.794 -0.1014  0.8442  0.6980
  231EMI     C4 4374   2.183   0.689   5.763  0.1174 -0.2525 -0.0506
  231EMI     C5 4375   2.265   0.618   5.848  0.1519  0.0829 -0.3515
  231EMI     H2 4376   1.960   0.556   5.957  1.1586 -0.6449 -0.8425
  231EMI     H4 4377   2.210   0.749   5.676 -3.3380 -1.2230 -0.5111
  231EMI     H5 4378   2.373   0.614   5.839 -0.7046 -2.7977  0.5312
  231EMI    C1' 4379   1.940   0.737   5.723  0.0827  0.0949  0.4860
  231EMI    H1' 4380   1.843   0.680   5.720 -0.2453  0.8899 -2.3551
  231EMI    H1' 4381   1.933   0.832   5.773  3.2645  0.6788 -1.7819
  231EMI    H1' 4382   1.964   0.750   5.617  0.3270 -0.7842 -0.7377
  231EMI    C1" 4383   2.225   0.481   6.057  0.0919 -0.4709  0.4708
  231EMI    H1" 4384   2.226   0.550   6.140  1.6466  0.2709 -0.9300
  231EMI    H1" 4385   2.323   0.433   6.044  2.5785  2.3628 -1.1244
  231EMI    C2" 4386   2.131   0.363   6.089 -0.1835  0.2603  0.9668
  231EMI    H2" 4387   2.185   0.301   6.166  2.3482 -2.8165 -0.1446
  231EMI    H2" 4388   2.032   0.390   6.128 -1.3532  1.0933  0.6896
  231EMI    H2" 4389   2.130   0.290   6.001  0.8992 -1.2163 -0.9909
  232EMI     N1 4390   0.138   4.334   1.417  0.1225  0.5794 -0.1232
  232EMI     C2 4391   0.038   4.326   1.511 -0.4962  0.3956  0.9125
  232EMI     N3 4392   0.049   4.418   1.602 -0.2462 -0.5217 -1.0238
  232EMI     C4 4393   0.163   4.491   1.569  0.4152 -0.4154 -0.1180
  232EMI     C5 4394   0.218   4.437   1.459 -0.5409 -0.5356  0.1212
  232EMI     H2 4395  -0.037   4.248   1.518  0.5648 -1.1713 -1.4453
  232EMI     H4 4396   0.203   4.580   1.619 -0.7230 -1.4260 -1.2730
  232EMI     H5 4397   0.308   4.476   1.405  1.6240  0.2815  0.1985
  232EMI    C1' 4398  -0.024   4.441   1.726  0.1944  0.3473 -0.1232
  232EMI    H1' 4399  -0.028   4.344   1.778 -1.8891 -1.6166  0.8272
  232EMI    H1' 4400   0.007   4.517   1.795 -0.6888  3.2211 -2.8836
  232EMI    H1' 4401  -0.133   4.457   1.702 -0.8399  0.6468 -1.4462
  232EMI    C1" 4402   0.160   4.247   1.297 -1.0283  0.3444 -0.0808
  232EMI    H1" 4403   0.197   4.310   1.216 -1.8708 -2.3980  0.9390
  232EMI    H1" 4404   0.071   4.190   1.279 -1.6162  0.2097  2.0369
  232EMI    C2" 4405   0.273   4.144   1.318  0.1334  0.9069 -0.1364
  232EMI    H2" 4406   0.361   4.188   1.357 -1.0701  1.4929 -0.2325
  232EMI    H2" 4407   0.238   4.076   1.398  0.1259 -0.7492 -0.6187
  232EMI    H2" 4408   0.287   4.094   1.226  1.0312  1.8524 -1.2898
  233EMI     N1 4409   2.636   0.615   5.606 -0.8413 -0.2338  0.4000
  233EMI     C2 4410   2.642   0.494   5.661  0.1004  0.4126  0.0709
  233EMI     N3 4411   2.523   0.433   5.645  0.1363  0.1950  0.3801
  233EMI     C4 4412   2.445   0.514   5.570 -0.6242  0.4997  0.2140
  233EMI     C5 4413   2.518   0.626   5.540  0.0617  0.6996 -0.2064
  233EMI     H2 4414   2.727   0.452   5.703 -0.3352 -2.8364  0.0218
  233EMI     H4 4415   2.349   0.488   5.533  0.8491  1.1104  1.2500
  233EMI     H5 4416   2.486   0.707   5.477  0.2105 -1.0575  1.6983
  233EMI    C1' 4417   2.462   0.310   5.702  0.2189 -0.8221 -0.4970
  233EMI    H1' 4418   2.534   0.226   5.702 -1.3735  0.0221  0.0331
  233EMI    H1' 4419   2.437   0.331   5.809  0.4563  1.8945 -1.9693
  233EMI    H1' 4420   2.377   0.279   5.637  1.1307 -0.4521 -1.2380
  233EMI    C1" 4421   2.732   0.726   5.617  0.5591 -0.5879  0.0845
  233EMI    H1" 4422   2.763   0.752   5.519  1.2479  3.0035 -0.8624
  233EMI    H1" 4423   2.818   0.701   5.687  1.5371  1.6479 -0.2432
  233EMI    C2" 4424   2.663   0.853   5.675  0.0760 -0.0058 -0.3477
  233EMI    H2" 4425   2.633   0.836   5.779 -0.4198 -1.4957 -0.4952
  233EMI    H2" 4426   2.720   0.944   5.689 -0.6536 -1.4267 -1.2547
  233EMI    H2" 4427   2.576   0.877   5.609 -0.6534 -0.1700  1.0898
  234EMI     N1 4428   2.111   0.105   4.662  0.4759  0.5961  0.1820
  234EMI     C2 4429   2.039   0.207   4.609 -0.6396  0.0458  0.0159
  234EMI     N3 4430   2.102   0.326   4.644  0.2297  0.0970  0.2706
  234EMI     C4 4431   2.203   0.292   4.723 -0.3771  0.2675  0.2330
  234EMI     C5 4432   2.212   0.157   4.737  0.0557 -0.2627 -0.8076
  234EMI     H2 4433   1.944   0.196   4.555 -1.7576  2.6760  0.8295
  234EMI     H4 4434   2.268   0.366   4.767 -0.3593  1.7198  0.8744
  234EMI     H5 4435   2.280   0.100   4.799 -0.1236  0.4773 -1.8431
  234EMI    C1' 4436   2.058   0.461   4.630  0.5703  1.0403 -0.7187
  234EMI    H1' 4437   1.971   0.444   4.563 -0.3141 -0.2678 -0.8169
  234EMI    H1' 4438   2.019   0.493   4.725 -0.1001  1.2220 -0.0032
  234EMI    H1' 4439   2.140   0.521   4.584  0.0639 -0.9190  2.0833
  234EMI    C1" 4440   2.092  -0.039   4.650  0.2897  0.3613  0.1156
  234EMI    H1" 4441   2.193  -0.085   4.630  0.4655  0.0466  0.7575
  234EMI    H1" 4442   2.020  -0.059   4.567  0.7002 -0.7771  0.0142
  234EMI    C2" 4443   2.036  -0.090   4.785 -0.3051  0.4782  1.2474
  234EMI    H2" 4444   2.004  -0.195   4.773 -0.4644  2.2360  0.7456
  234EMI    H2" 4445   2.117  -0.081   4.861 -2.3827  1.9732  1.5386
  234EMI    H2" 4446   1.951  -0.030   4.816 -0.2811  3.7834  0.3825
  235EMI     N1 4447   4.034   3.770   1.038  0.0827 -0.5246  0.2228
  235EMI     C2 4448   3.950   3.867   1.077 -0.4548  0.3363 -0.0520
  235EMI     N3 4449   3.926   3.940   0.964  0.1007  0.4450  0.0384
  235EMI     C4 4450   3.993   3.896   0.854  0.2415  0.2381  0.3155
  235EMI     C5 4451   4.055   3.787   0.903 -0.9014 -0.9788  0.5052
  235EMI     H2 4452   3.920   3.888   1.176 -1.6002  2.3616 -0.6839
  235EMI     H4 4453   3.990   3.929   0.753 -1.1375 -1.7795  2.1537
  235EMI     H5 4454   4.110   3.710   0.852 -2.9689 -0.0498  4.6313
  235EMI    C1' 4455   3.842   4.061   0.954 -0.1735 -0.0690  0.9863
  235EMI    H1' 4456   3.731   4.055   0.931 -3.4283  1.1623  0.5210
  235EMI    H1' 4457   3.859   4.126   1.040  1.1078  1.0542  2.7726
  235EMI    H1' 4458   3.887   4.115   0.872  0.4038 -0.4526 -1.0835
  235EMI    C1" 4459   4.086   3.651   1.101 -0.2512  0.1936 -0.2557
  235EMI    H1" 4460   4.172   3.681   1.160 -0.4003 -0.5971 -1.0586
  235EMI    H1" 4461   4.123   3.589   1.023  1.0513  2.7024 -2.5697
  235EMI    C2" 4462   3.990   3.570   1.193 -0.1707 -0.0167 -0.1868
  235EMI    H2" 4463   3.989   3.611   1.288  1.1239 -1.5712 -1.0072
  235EMI    H2" 4464   3.890   3.547   1.151 -1.0188 -1.2706  1.4099
  235EMI    H2" 4465   4.035   3.474   1.215  2.8687 -2.9337  1.0014
  236EMI     N1 4466   3.813   5.081   0.387 -0.0437  0.2524  0.8203
  236EMI     C2 4467   3.705   5.029   0.452 -0.5402  0.3888 -0.3233
  236EMI     N3 4468   3.751   4.988   0.572  0.4653  0.3085 -0.3167
  236EMI     C4 4469   3.887   5.000   0.569 -0.2993  0.2960  0.1268
  236EMI     C5 4470   3.928   5.069   0.462 -0.1122  0.7765 -0.1338
  236EMI     H2 4471   3.605   5.060   0.441 -0.1293  2.9024 -0.7560
  236EMI     H4 4472   3.949   4.962   0.648  1.4427  3.1853  1.8003
  236EMI     H5 4473   4.024   5.109   0.440  1.3883  1.1144  1.9785
  236EMI    C1' 4474   3.666   4.936   0.677 -0.3404  0.0259 -0.4777
  236EMI    H1' 4475   3.594   4.871   0.629 -2.4282  1.1941  1.4174
  236EMI    H1' 4476   3.716   4.864   0.746 -0.2580 -0.6256  0.1603
  236EMI    H1' 4477   3.620   5.016   0.731 -0.3415 -1.1337 -3.5545
  236EMI    C1" 4478   3.808   5.156   0.258 -0.0114 -0.3255  0.2665
  236EMI    H1" 4479   3.797   5.263   0.282  0.9230 -1.3440  0.3457
  236EMI    H1" 4480   3.721   5.138   0.198  0.4917 -0.9615  2.9330
  236EMI    C2" 4481   3.936   5.138   0.178 -0.4477 -0.3014 -0.0915
  236EMI    H2" 4482   4.018   5.178   0.236  2.5160  0.0477 -2.2817
  236EMI    H2" 4483   3.959   5.033   0.159 -1.9437  1.4851  1.3600
  236EMI    H2" 4484   3.931   5.193   0.083 -1.5986  0.6350  2.0632
  237EMI     N1 4485   1.877   2.322   0.510  0.1724  0.1338  0.3339
  237EMI     C2 4486   1.886   2.430   0.434 -0.0219 -0.0660  0.5810
  237EMI     N3 4487   1.767   2.494   0.430 -0.7796  0.0449 -0.1490
  237EMI     C4 4488   1.685   2.429   0.521 -0.1070  0.2818 -1.0010
  237EMI     C5 4489   1.754   2.321   0.569 -0.1161  0.4949  0.3289
  237EMI     H2 4490   1.975   2.456   0.377 -0.0140 -2.9501  0.5788
  237EMI     H4 4491   1.583   2.442   0.557  2.0808 -0.1802 -0.4971
  237EMI     H5 4492   1.718   2.264   0.653 -1.7301  0.4540  1.0322
  237EMI    C1' 4493   1.728   2.608   0.343  0.0453 -1.0771  0.1880
  237EMI    H1' 4494   1.678   2.679   0.402 -1.6453 -0.0554 -0.0467
  237EMI    H1' 4495   1.813   2.658   0.286  0.5588  1.4467  0.4515
  237EMI    H1' 4496   1.659   2.571   0.267 -2.2283  0.8545 -0.8170
  237EMI    C1" 4497   1.972   2.211   0.528 -0.0056 -0.6593  0.0755
  237EMI    H1" 4498   1.928   2.131   0.584 -0.7953 -1.3758  0.9744
  237EMI    H1" 4499   2.072   2.249   0.569  2.4417  0.2439  2.8997
  237EMI    C2" 4500   2.011   2.158   0.388 -0.0880  0.1166 -1.0825
  237EMI    H2" 4501   2.051   2.229   0.321  2.3589 -1.7612 -0.3976
  237EMI    H2" 4502   2.070   2.076   0.400 -1.1329  4.2882 -1.1539
  237EMI    H2" 4503   1.918   2.124   0.340  2.0336  1.2227 -2.7669
  238EMI     N1 4504   1.266   2.570   3.913  0.1707 -0.0263 -0.2501
  238EMI     C2 4505   1.231   2.626   4.032 -0.0840  0.5556 -0.8699
  238EMI     N3 4506   1.237   2.530   4.126  0.4515 -0.0339  0.3444
  238EMI     C4 4507   1.268   2.413   4.068 -0.4079 -0.0129  0.3115
  238EMI     C5 4508   1.289   2.438   3.941 -0.3201 -0.2844  0.4205
  238EMI     H2 4509   1.220   2.734   4.044  2.2745  3.3605  1.3039
  238EMI     H4 4510   1.291   2.323   4.120 -3.5081  0.5438  0.5753
  238EMI     H5 4511   1.326   2.361   3.871  2.1498 -0.4624 -0.6476
  238EMI    C1' 4512   1.228   2.539   4.273 -0.1120 -0.9153  0.1453
  238EMI    H1' 4513   1.120   2.545   4.298 -0.8607  1.2425 -1.2843
  238EMI    H1' 4514   1.266   2.448   4.322 -0.7602  0.2399  2.1509
  238EMI    H1' 4515   1.284   2.622   4.301 -1.3749 -1.6043 -1.6180
  238EMI    C1" 4516   1.304   2.628   3.783 -0.0744  0.3270 -0.8279
  238EMI    H1" 4517   1.246   2.584   3.703  2.2633 -0.1208 -0.0111
  238EMI    H1" 4518   1.416   2.613   3.765  2.8326 -0.6997  1.4633
  238EMI    C2" 4519   1.272   2.778   3.787  0.0457 -0.4640 -0.1219
  238EMI    H2" 4520   1.319   2.821   3.699 -0.7210 -2.1373  0.5522
  238EMI    H2" 4521   1.166   2.791   3.768  1.4899 -0.1286 -1.6564
  238EMI    H2" 4522   1.292   2.829   3.887 -0.5984  2.2572 -0.5356
  239EMI     N1 4523   3.937   1.476   5.737 -0.1907 -0.5414  0.7030
  239EMI     C2 4524   3.836   1.498   5.821  0.2280  0.1912 -0.4991
  239EMI     N3 4525   3.866   1.598   5.902 -0.0531 -0.9263 -0.0101
  239EMI     C4 4526   3.989   1.648   5.869  0.1560  0.3423 -0.3849
  239EMI     C5 4527   4.031   1.573   5.761  0.7507 -0.1330 -0.0065
  239EMI     H2 4528   3.746   1.434   5.832 -3.0987 -1.2556  1.9709
  239EMI     H4 4529   4.044   1.723   5.919  1.3029  0.8248 -0.5546
  239EMI     H5 4530   4.128   1.584   5.712  1.1164 -0.0289 -1.5891
  239EMI    C1' 4531   3.779   1.654   6.006  0.5381 -0.4486 -0.4220
  239EMI    H1' 4532   3.747   1.752   5.985 -0.9084  1.9595  0.1843
  239EMI    H1' 4533   3.688   1.592   6.009 -0.0331 -2.4483 -2.1365
  239EMI    H1' 4534   3.819   1.659   6.113  2.0806  0.4947 -0.5063
  239EMI    C1" 4535   3.941   1.390   5.617 -0.1292 -0.5013  0.9517
  239EMI    H1" 4536   3.984   1.294   5.647 -1.7816  0.3275  0.7825
  239EMI    H1" 4537   3.998   1.436   5.537 -0.3717 -0.3915  1.0873
  239EMI    C2" 4538   3.800   1.374   5.568 -0.7132  0.9693  0.1295
  239EMI    H2" 4539   3.785   1.306   5.495 -0.8175 -1.0661  1.9319
  239EMI    H2" 4540   3.728   1.344   5.643 -2.5944  1.2348 -0.4373
  239EMI    H2" 4541   3.762   1.464   5.526 -0.7811 -1.2488 -0.5734
  240EMI     N1 4542   5.355   3.870   2.638 -0.3890  0.1281 -0.6932
  240EMI     C2 4543   5.320   3.872   2.770 -0.1007 -0.7603  1.2095
  240EMI     N3 4544   5.219   3.965   2.787 -0.4029  0.1765  0.1307
  240EMI     C4 4545   5.207   4.035   2.666  0.2589  0.3950  0.4830
  240EMI     C5 4546   5.281   3.965   2.578  1.0303  0.3810 -0.0158
  240EMI     H2 4547   5.346   3.795   2.833 -0.3655  3.2251 -1.3932
  240EMI     H4 4548   5.141   4.117   2.640 -1.7738 -1.2922 -2.0138
  240EMI     H5 4549   5.281   3.985   2.470 -0.0028 -0.3958 -0.8993
  240EMI    C1' 4550   5.141   3.996   2.908  0.6439  0.0600 -0.1629
  240EMI    H1' 4551   5.186   3.950   2.990 -2.0266  3.1111 -0.8146
  240EMI    H1' 4552   5.150   4.100   2.933 -0.0514  0.6206 -0.2412
  240EMI    H1' 4553   5.037   3.969   2.891 -2.1840  0.2749 -1.0323
  240EMI    C1" 4554   5.440   3.780   2.561 -1.0140  0.3550  0.6217
  240EMI    H1" 4555   5.439   3.822   2.460 -0.4279  2.1030 -0.1071
  240EMI    H1" 4556   5.424   3.675   2.566 -0.9393  0.9862  0.4780
  240EMI    C2" 4557   5.586   3.783   2.614  0.4738  0.0929 -0.2443
  240EMI    H2" 4558   5.647   3.708   2.560  0.6923  1.4313 -2.3657
  240EMI    H2" 4559   5.631   3.874   2.588 -0.8443 -0.9497  0.8805
  240EMI    H2" 4560   5.601   3.756   2.719 -0.5397  0.6909 -1.5429
  241EMI     N1 4561   6.321   0.611   0.056  0.2383  0.0227  0.0645
  241EMI     C2 4562   6.281   0.721  -0.014  0.5094  0.2252 -0.0767
  241EMI     N3 4563   6.169   0.693  -0.086 -0.3301 -0.0350 -0.5413
  241EMI     C4 4564   6.134   0.569  -0.047  0.3182 -0.0746  0.3210
  241EMI     C5 4565   6.220   0.516   0.040 -0.4152 -0.5859 -0.3855
  241EMI     H2 4566   6.349   0.799  -0.036 -2.0608 -3.7827 -0.6509
  241EMI     H4 4567   6.041   0.524  -0.085  0.9726  0.3042  1.9797
  241EMI     H5 4568   6.215   0.418   0.087 -0.8782  0.5809 -2.8158
  241EMI    C1' 4569   6.089   0.770  -0.183 -0.2983 -0.1744  0.1495
  241EMI    H1' 4570   6.027   0.829  -0.117 -1.8197 -1.1778 -1.4581
  241EMI    H1' 4571   6.160   0.836  -0.233  0.7027  1.7452  1.5282
  241EMI    H1' 4572   6.025   0.709  -0.242 -0.5485 -1.3525 -0.7995
  241EMI    C1" 4573   6.434   0.585   0.143 -0.4526 -0.2650  0.3981
  241EMI    H1" 4574   6.431   0.488   0.188 -1.2215 -1.6170 -1.7537
  241EMI    H1" 4575   6.434   0.666   0.216  1.3030 -1.6472  0.4227
  241EMI    C2" 4576   6.566   0.595   0.068 -0.1159  0.1460  0.2382
  241EMI    H2" 4577   6.587   0.688   0.019  0.0874 -1.1623  1.4470
  241EMI    H2" 4578   6.642   0.606   0.148 -0.6638  1.9949  0.2969
  241EMI    H2" 4579   6.588   0.518  -0.006  0.3106  1.9888  1.7876
  242EMI     N1 4580   6.223   4.890   2.734 -0.3242  0.5625 -0.1344
  242EMI     C2 4581   6.335   4.862   2.806  0.1221  0.2716 -0.4395
  242EMI     N3 4582   6.323   4.920   2.928  0.3233  0.4131  0.4566
  242EMI     C4 4583   6.201   4.992   2.926 -0.5551  0.8976 -0.3592
  242EMI     C5 4584   6.140   4.968   2.810 -0.0227 -0.1529  0.2155
  242EMI     H2 4585   6.421   4.806   2.775 -0.2465 -1.7491 -0.8518
  242EMI     H4 4586   6.165   5.060   3.001 -0.8137  0.4461  1.5130
  242EMI     H5 4587   6.044   5.011   2.786 -3.4387 -1.9848  0.4404
  242EMI    C1' 4588   6.421   4.926   3.032  0.4266  0.5449  0.0568
  242EMI    H1' 4589   6.516   4.886   3.010 -0.7831 -0.5025  0.0867
  242EMI    H1' 4590   6.437   5.032   3.069 -2.0130  0.6149 -0.4494
  242EMI    H1' 4591   6.368   4.868   3.118 -3.5535 -1.3300  0.8247
  242EMI    C1" 4592   6.185   4.855   2.597  0.0085 -0.0135 -0.6083
  242EMI    H1" 4593   6.081   4.870   2.588 -0.1067  2.1567 -0.9547
  242EMI    H1" 4594   6.204   4.746   2.575 -0.4287 -2.4837  3.9369
  242EMI    C2" 4595   6.244   4.944   2.495  0.5243 -0.3961 -0.0425
  242EMI    H2" 4596   6.350   4.930   2.468  2.4850 -0.7565 -0.1571
  242EMI    H2" 4597   6.203   4.924   2.401 -0.1367 -0.4701  0.0690
  242EMI    H2" 4598   6.224   5.048   2.522  0.0937 -2.5332 -1.3480
  243EMI     N1 4599   2.500   4.272   5.622 -0.2657 -0.2917 -0.3348
  243EMI     C2 4600   2.486   4.404   5.612  0.5342  0.0916  0.4339
  243EMI     N3 4601   2.583   4.460   5.541  0.0866 -0.0728  0.6809
  243EMI     C4 4602   2.661   4.354   5.494  0.4005 -0.3010  0.3978
  243EMI     C5 4603   2.608   4.240   5.540 -0.0931 -0.7758 -0.2247
  243EMI     H2 4604   2.403   4.456   5.648  3.5496  3.2305 -1.9548
  243EMI     H4 4605   2.751   4.373   5.435  0.3920  0.4893  2.3926
  243EMI     H5 4606   2.654   4.140   5.527  0.9864 -0.9156  1.9226
  243EMI    C1' 4607   2.613   4.593   5.507 -0.3511  0.6829 -0.2464
  243EMI    H1' 4608   2.700   4.617   5.568 -1.9284 -0.0227  0.2921
  243EMI    H1' 4609   2.631   4.602   5.404 -0.7892  2.4088  2.1709
  243EMI    H1' 4610   2.530   4.656   5.530  1.8966 -2.5074  0.3302
  243EMI    C1" 4611   2.408   4.172   5.661  0.5667  0.1418  0.1376
  243EMI    H1" 4612   2.334   4.200   5.734 -0.6565  1.9384 -0.6082
  243EMI    H1" 4613   2.463   4.088   5.700  2.8040 -0.4953  2.4369
  243EMI    C2" 4614   2.315   4.128   5.536 -0.1034  0.5409  0.0813
  243EMI    H2" 4615   2.238   4.061   5.576  0.8272 -2.8237  1.8723
  243EMI    H2" 4616   2.273   4.214   5.491  2.9218 -1.0761  2.0388
  243EMI    H2" 4617   2.375   4.064   5.476 -2.1617  0.9999  2.3625
  244EMI     N1 4618   1.502   1.656   2.931 -0.9395 -0.1670  1.0209
  244EMI     C2 4619   1.395   1.617   2.853 -0.0716  0.5071 -0.1477
  244EMI     N3 4620   1.284   1.638   2.921 -0.0580 -0.3895  0.0815
  244EMI     C4 4621   1.311   1.698   3.038  0.4914 -0.6476  0.4460
  244EMI     C5 4622   1.447   1.718   3.046 -0.5009  0.0670 -0.3233
  244EMI     H2 4623   1.399   1.562   2.757  0.0767 -0.2128 -1.6698
  244EMI     H4 4624   1.233   1.728   3.105 -1.1351  2.2728 -1.5043
  244EMI     H5 4625   1.500   1.754   3.134 -2.1394 -1.7175 -1.1410
  244EMI    C1' 4626   1.140   1.624   2.891 -0.1827  0.2495  0.3629
  244EMI    H1' 4627   1.117   1.518   2.878 -0.1040 -0.8338 -0.1827
  244EMI    H1' 4628   1.075   1.680   2.964  2.2311 -0.8291  0.6511
  244EMI    H1' 4629   1.131   1.671   2.801  3.0315  1.1256 -0.0061
  244EMI    C1" 4630   1.647   1.632   2.913  0.0147 -0.2862 -0.2466
  244EMI    H1" 4631   1.666   1.534   2.876  1.3408  2.3258  1.2093
  244EMI    H1" 4632   1.704   1.641   3.006 -0.1109  2.1082  2.8407
  244EMI    C2" 4633   1.691   1.730   2.806 -0.5254  0.5710 -0.0900
  244EMI    H2" 4634   1.643   1.707   2.709  0.3476  2.8877  0.8619
  244EMI    H2" 4635   1.668   1.832   2.825 -1.3726 -4.4122 -1.4515
  244EMI    H2" 4636   1.803   1.717   2.794  2.8481 -2.7025  2.0600
  245EMI     N1 4637   0.139   5.827   2.928 -0.1215  0.3776  0.9310
  245EMI     C2 4638   0.165   5.844   3.058  0.0295  0.0250  0.5901
  245EMI     N3 4639   0.236   5.743   3.108 -0.2582 -0.2499 -0.1612
  245EMI     C4 4640   0.262   5.654   3.011 -0.3849 -0.3509 -0.8796
  245EMI     C5 4641   0.196   5.698   2.901 -0.1818 -0.0544  0.0655
  245EMI     H2 4642   0.126   5.933   3.107 -1.5926 -2.2659 -1.0837
  245EMI     H4 4643   0.324   5.566   3.020  3.9287 -1.1989  1.6034
  245EMI     H5 4644   0.186   5.639   2.803 -0.2703  1.2040  1.5778
  245EMI    C1' 4645   0.245   5.710   3.249  0.7721 -0.4649 -0.6048
  245EMI    H1' 4646   0.336   5.743   3.291 -1.3093 -0.6386  2.1447
  245EMI    H1' 4647   0.167   5.771   3.303 -0.6435  0.1960  5.0173
  245EMI    H1' 4648   0.224   5.606   3.265 -0.2041  0.5075 -0.2142
  245EMI    C1" 4649   0.047   5.890   2.830  0.4875  0.1975 -0.0868
  245EMI    H1" 4650  -0.055   5.889   2.872 -1.3843 -0.1038  1.8308
  245EMI    H1" 4651   0.056   5.833   2.737 -1.2983  1.3530  0.1266
  245EMI    C2" 4652   0.094   6.035   2.816  0.0696  0.2522 -0.1894
  245EMI    H2" 4653   0.195   6.030   2.777  2.8910  1.1756 -1.3876
  245EMI    H2" 4654   0.035   6.089   2.744 -0.5697 -0.5838  1.1892
  245EMI    H2" 4655   0.095   6.093   2.911 -0.0640  2.8244  1.7900
  246EMI     N1 4656   2.453   3.316   1.493 -0.7729 -0.2406 -0.0561
  246EMI     C2 4657   2.583   3.288   1.466  0.5212  0.1389 -0.6707
  246EMI     N3 4658   2.615   3.164   1.509  0.5295 -0.0973  0.2645
  246EMI     C4 4659   2.498   3.103   1.546 -0.2817 -0.4317  0.0906
  246EMI     C5 4660   2.406   3.200   1.544  0.5441  0.4910 -0.1207
  246EMI     H2 4661   2.654   3.357   1.415  1.3246 -1.5312  0.1032
  246EMI     H4 4662   2.488   3.002   1.586 -1.9196 -2.4026 -1.0754
  246EMI     H5 4663   2.307   3.186   1.584  1.8708  1.7067  1.1457
  246EMI    C1' 4664   2.745   3.102   1.493 -0.1743  0.3215 -0.0216
  246EMI    H1' 4665   2.746   3.058   1.395  0.8803  4.7502 -0.0062
  246EMI    H1' 4666   2.821   3.173   1.487 -0.6040 -0.3594 -1.2429
  246EMI    H1' 4667   2.767   3.035   1.579 -1.7142  0.4610  0.4507
  246EMI    C1" 4668   2.361   3.423   1.469 -0.6898 -0.4293  0.1852
  246EMI    H1" 4669   2.364   3.483   1.559  0.3349 -1.8666  0.7521
  246EMI    H1" 4670   2.265   3.382   1.446 -1.4703 -1.0467 -0.2198
  246EMI    C2" 4671   2.407   3.500   1.351  0.3783 -0.8555  0.7044
  246EMI    H2" 4672   2.321   3.556   1.323  2.0648  1.1869  2.4264
  246EMI    H2" 4673   2.483   3.570   1.373 -2.9497 -2.0285 -0.8969
  246EMI    H2" 4674   2.449   3.432   1.277  1.6773 -3.2624  0.2964
  247EMI     N1 4675   0.838   0.651   0.837 -0.1330  0.9221  0.1508
  247EMI     C2 4676   0.735   0.609   0.766 -0.3011  0.8911 -0.3728
  247EMI     N3 4677   0.753   0.622   0.635  0.0000 -0.2425  0.0685
  247EMI     C4 4678   0.881   0.664   0.622 -0.3769 -0.9197 -0.3544
  247EMI     C5 4679   0.936   0.678   0.740 -0.1068 -0.3824 -0.3837
  247EMI     H2 4680   0.651   0.562   0.816  0.8838  0.6296 -1.6507
  247EMI     H4 4681   0.935   0.684   0.530 -1.0462 -2.4088  0.0146
  247EMI     H5 4682   1.038   0.708   0.754 -0.7307  0.5707 -0.6241
  247EMI    C1' 4683   0.663   0.592   0.522 -0.7797  0.0934 -0.2271
  247EMI    H1' 4684   0.710   0.592   0.429  0.8443 -0.6753  0.2054
  247EMI    H1' 4685   0.620   0.493   0.546 -0.3644  0.2890 -0.2294
  247EMI    H1' 4686   0.591   0.664   0.504 -0.4938  1.9247  1.3923
  247EMI    C1" 4687   0.860   0.654   0.988 -0.3413  0.0846  0.1803
  247EMI    H1" 4688   0.815   0.738   1.035  0.5096 -1.5328 -0.8158
  247EMI    H1" 4689   0.965   0.657   1.009  3.3530  0.4129  0.2566
  247EMI    C2" 4690   0.784   0.539   1.053 -0.6301 -0.5035 -0.3217
  247EMI    H2" 4691   0.815   0.533   1.159  0.1354 -2.1471  2.5855
  247EMI    H2" 4692   0.677   0.552   1.035  1.1612  2.2807 -0.7972
  247EMI    H2" 4693   0.828   0.447   1.005  1.0775  2.1440 -0.1429
  248EMI     N1 4694   3.045   5.152   1.249 -0.0029 -0.5342 -0.5451
  248EMI     C2 4695   3.085   5.238   1.156 -0.3775 -0.3350  0.6189
  248EMI     N3 4696   3.091   5.366   1.197  0.7468  0.1931 -0.0557
  248EMI     C4 4697   3.054   5.361   1.327  0.8596  0.1103  0.4006
  248EMI     C5 4698   3.023   5.239   1.363  0.5656  0.6202  0.0666
  248EMI     H2 4699   3.107   5.202   1.056  0.6369  0.0079  2.3529
  248EMI     H4 4700   3.053   5.444   1.393 -1.2295 -1.3977  0.5859
  248EMI     H5 4701   2.987   5.207   1.461  1.9575  0.4602 -0.8369
  248EMI    C1' 4702   3.134   5.496   1.128 -0.3711 -0.3695 -0.8799
  248EMI    H1' 4703   3.239   5.469   1.096 -1.3346  0.4848 -0.7493
  248EMI    H1' 4704   3.057   5.520   1.052 -1.7701 -0.9013 -0.3517
  248EMI    H1' 4705   3.137   5.570   1.209  1.4078  1.3270  1.7930
  248EMI    C1" 4706   3.029   5.006   1.236 -0.3652 -0.1285 -0.2156
  248EMI    H1" 4707   2.970   4.981   1.146  1.0148  1.3075 -0.4098
  248EMI    H1" 4708   2.975   4.969   1.322 -3.2143 -0.4144 -1.5147
  248EMI    C2" 4709   3.168   4.942   1.229 -0.2505  0.0563 -0.1454
  248EMI    H2" 4710   3.235   4.987   1.156  0.0694 -1.5313 -0.6237
  248EMI    H2" 4711   3.214   4.934   1.323 -0.8240 -1.2690 -1.2524
  248EMI    H2" 4712   3.154   4.836   1.196  1.8466  0.3994 -2.8322
  249EMI     N1 4713   6.109   5.366   1.744 -0.0314  0.1049  0.3195
  249EMI     C2 4714   6.073   5.380   1.613  0.6526  0.0945 -0.2154
  249EMI     N3 4715   6.043   5.255   1.565 -0.1733 -0.4184 -0.4863
  249EMI     C4 4716   6.053   5.174   1.666 -0.3472  0.5069 -0.5296
  249EMI     C5 4717   6.087   5.233   1.778 -0.6323 -0.2954  0.4753
  249EMI     H2 4718   6.082   5.469   1.554 -1.4669  1.9176  1.0688
  249EMI     H4 4719   6.031   5.063   1.657 -3.0347 -1.2457 -0.7536
  249EMI     H5 4720   6.104   5.191   1.872 -2.1738 -0.9475 -0.8864
  249EMI    C1' 4721   5.995   5.208   1.432 -1.5127  1.0028  0.3061
  249EMI    H1' 4722   6.077   5.181   1.369 -0.8832 -2.6747  3.0756
  249EMI    H1' 4723   5.934   5.116   1.451  0.7061  0.3451  3.6091
  249EMI    H1' 4724   5.932   5.284   1.387  0.7202 -1.8158  3.3100
  249EMI    C1" 4725   6.157   5.463   1.841 -0.0812 -0.4393 -0.3641
  249EMI    H1" 4726   6.120   5.439   1.942  0.2059 -0.5317 -0.6465
  249EMI    H1" 4727   6.118   5.560   1.817  0.2843  1.0730  2.5533
  249EMI    C2" 4728   6.316   5.462   1.848  0.0174 -0.5004  0.1662
  249EMI    H2" 4729   6.361   5.500   1.751  0.2182 -3.5056  0.5022
  249EMI    H2" 4730   6.345   5.536   1.921 -1.2160 -1.2760 -0.8483
  249EMI    H2" 4731   6.350   5.363   1.877  0.8066 -1.8142  0.8195
  250EMI     N1 4732   0.663   1.510   0.938 -0.3344  0.3498 -0.2282
  250EMI     C2 4733   0.707   1.395   0.889 -1.0826 -0.1981 -0.3434
  250EMI     N3 4734   0.836   1.364   0.926  0.4320 -0.0835  0.2184
  250EMI     C4 4735   0.870   1.468   1.015 -0.5577 -0.0303 -0.4519
  250EMI     C5 4736   0.768   1.560   1.015 -0.7101  0.7205  0.6982
  250EMI     H2 4737   0.649   1.325   0.830  1.8250 -3.3211 -1.0930
  250EMI     H4 4738   0.971   1.471   1.057  3.3744  1.2422 -1.1525
  250EMI     H5 4739   0.776   1.657   1.057  0.9802 -0.8268 -0.0958
  250EMI    C1' 4740   0.933   1.268   0.874  0.6932 -0.4466 -0.0236
  250EMI    H1' 4741   0.915   1.167   0.909 -2.0488 -2.5775  0.5755
  250EMI    H1' 4742   0.927   1.246   0.765 -3.4867 -2.6905 -3.5943
  250EMI    H1' 4743   1.034   1.296   0.901 -0.3431 -0.7189  0.0147
  250EMI    C1" 4744   0.535   1.583   0.932  0.4991  0.4291  0.0948
  250EMI    H1" 4745   0.470   1.549   0.856 -1.4543  0.7992  1.5097
  250EMI    H1" 4746   0.536   1.692   0.918 -2.8182  1.1849 -1.3312
  250EMI    C2" 4747   0.452   1.539   1.056 -0.1769  0.5713  0.4009
  250EMI    H2" 4748   0.424   1.432   1.053 -0.2190  1.2771 -0.9114
  250EMI    H2" 4749   0.498   1.555   1.152 -1.1320  2.4659  3.7767
  250EMI    H2" 4750   0.368   1.613   1.059  0.1105  3.3544 -0.0779
  251EMI     N1 4751   5.743   2.149   1.399  0.4420 -0.2866 -0.2297
  251EMI     C2 4752   5.715   2.022   1.419 -0.6508  0.6544 -0.1956
  251EMI     N3 4753   5.756   1.993   1.546  0.5610 -0.0070  0.2475
  251EMI     C4 4754   5.812   2.108   1.601 -0.4531  0.1248  0.6739
  251EMI     C5 4755   5.811   2.203   1.507  0.5149 -0.5873 -0.3058
  251EMI     H2 4756   5.651   1.967   1.350  0.9974  0.7985  0.0665
  251EMI     H4 4757   5.859   2.121   1.700 -1.3119 -0.3871  0.8422
  251EMI     H5 4758   5.861   2.297   1.504 -1.2415 -3.0353 -0.0538
  251EMI    C1' 4759   5.745   1.869   1.614  0.1681 -0.8602  0.5500
  251EMI    H1' 4760   5.814   1.801   1.577 -1.5248  1.6035  1.0606
  251EMI    H1' 4761   5.761   1.879   1.721  0.9208  1.0731  1.6206
  251EMI    H1' 4762   5.649   1.832   1.595  1.6478 -1.7897 -1.6509
  251EMI    C1" 4763   5.704   2.226   1.278 -0.4300 -0.7115  0.4333
  251EMI    H1" 4764   5.642   2.312   1.308  0.3826  0.2649 -3.0313
  251EMI    H1" 4765   5.638   2.173   1.212  3.2166 -0.8466 -1.4546
  251EMI    C2" 4766   5.822   2.283   1.192 -0.2455 -0.0863  0.0446
  251EMI    H2" 4767   5.777   2.324   1.104 -1.9771 -0.0196 -1.2244
  251EMI    H2" 4768   5.869   2.364   1.250  1.2971  1.3703 -0.1585
  251EMI    H2" 4769   5.900   2.210   1.162  0.6422  1.8302  0.8525
  252EMI     N1 4770   2.232   4.559   0.115 -0.3650 -0.2985  0.2170
  252EMI     C2 4771   2.331   4.620   0.050 -0.1422 -0.6125 -0.2584
  252EMI     N3 4772   2.285   4.738   0.003 -0.1090 -0.4978  0.5172
  252EMI     C4 4773   2.154   4.752   0.040  0.5679 -0.0979 -0.1366
  252EMI     C5 4774   2.123   4.642   0.114 -0.5055 -0.3169  0.2595
  252EMI     H2 4775   2.423   4.575   0.021  0.2072  1.4170  0.1990
  252EMI     H4 4776   2.096   4.837   0.010 -0.1976 -0.6961 -1.0228
  252EMI     H5 4777   2.031   4.625   0.164  0.9045  0.8583 -1.2211
  252EMI    C1' 4778   2.361   4.839  -0.075  0.2244  0.0619 -0.0217
  252EMI    H1' 4779   2.316   4.884  -0.165  1.6463 -1.3926  0.7593
  252EMI    H1' 4780   2.392   4.917  -0.011  0.3609 -3.7803  3.0015
  252EMI    H1' 4781   2.452   4.792  -0.119 -0.9899 -3.2736 -1.3134
  252EMI    C1" 4782   2.219   4.422   0.167 -0.4140  0.4165 -0.4961
  252EMI    H1" 4783   2.321   4.387   0.187 -1.2562  2.4101 -1.5645
  252EMI    H1" 4784   2.175   4.352   0.094 -0.5315 -0.1734  2.0659
  252EMI    C2" 4785   2.146   4.413   0.294 -0.3676  0.1449 -0.0906
  252EMI    H2" 4786   2.212   4.465   0.360 -0.1077 -2.0942 -1.1175
  252EMI    H2" 4787   2.041   4.461   0.283 -1.4406  0.0945  2.3503
  252EMI    H2" 4788   2.147   4.303   0.313  1.2006 -2.5303  0.8571
  253EMI     N1 4789   1.315   5.556   3.863  0.2556 -0.1806 -0.2267
  253EMI     C2 4790   1.358   5.484   3.763  0.2642  0.4148  0.5808
  253EMI     N3 4791   1.495   5.479   3.769  0.0803  0.4231 -0.3710
  253EMI     C4 4792   1.531   5.541   3.888  0.2812  0.6358  0.1553
  253EMI     C5 4793   1.418   5.582   3.946  0.3297  0.3214 -0.3369
  253EMI     H2 4794   1.285   5.453   3.680  1.3353 -0.2284 -2.7199
  253EMI     H4 4795   1.629   5.544   3.932 -0.4286  0.3908 -1.7256
  253EMI     H5 4796   1.403   5.635   4.040 -2.7724 -1.1768  0.8264
  253EMI    C1' 4797   1.588   5.418   3.670  0.7422 -0.1597  0.3225
  253EMI    H1' 4798   1.590   5.309   3.683 -0.0740 -1.8495  0.1348
  253EMI    H1' 4799   1.572   5.447   3.566 -1.4978  0.4794  0.5851
  253EMI    H1' 4800   1.680   5.470   3.690 -1.4966  0.7246 -1.3888
  253EMI    C1" 4801   1.170   5.595   3.888 -1.0930 -0.6575 -0.2923
  253EMI    H1" 4802   1.148   5.592   3.990  0.6291 -0.5446  1.6106
  253EMI    H1" 4803   1.107   5.521   3.842 -0.0585  1.3198  2.6282
  253EMI    C2" 4804   1.145   5.726   3.818 -0.1846 -0.5519 -0.6100
  253EMI    H2" 4805   1.228   5.788   3.835  2.7934 -2.5560 -0.8198
  253EMI    H2" 4806   1.128   5.724   3.709 -0.6260  0.5249  1.0882
  253EMI    H2" 4807   1.057   5.760   3.869  1.0076 -2.2948 -2.6391
  254EMI     N1 4808   0.227   2.252   3.378  0.0027  0.3709  0.8817
  254EMI     C2 4809   0.357   2.277   3.374 -0.2527 -0.9228 -0.5694
  254EMI     N3 4810   0.393   2.336   3.488 -0.0759 -0.2752  0.0208
  254EMI     C4 4811   0.286   2.332   3.577  0.7684  0.1536 -0.3852
  254EMI     C5 4812   0.174   2.283   3.502 -0.6642  0.0779 -0.9783
  254EMI     H2 4813   0.411   2.262   3.283 -2.0402  0.3315  2.1827
  254EMI     H4 4814   0.290   2.348   3.683  1.2733 -1.8096  0.1896
  254EMI     H5 4815   0.070   2.258   3.533 -1.0303  0.0119  0.9731
  254EMI    C1' 4816   0.534   2.372   3.529  0.0133  0.3258  0.0916
  254EMI    H1' 4817   0.555   2.478   3.510 -1.1203  0.0865 -1.8789
  254EMI    H1' 4818   0.555   2.348   3.631  0.7113 -2.8097 -4.0810
  254EMI    H1' 4819   0.608   2.311   3.477 -1.5758  0.0227 -0.3253
  254EMI    C1" 4820   0.143   2.195   3.267  0.2046 -0.0933 -0.4864
  254EMI    H1" 4821   0.167   2.246   3.172 -1.5350  0.1091 -3.0200
  254EMI    H1" 4822   0.037   2.212   3.283 -2.0109 -0.2462  0.3956
  254EMI    C2" 4823   0.182   2.046   3.259  0.3561  0.2349  0.0175
  254EMI    H2" 4824   0.288   2.048   3.233 -1.5189  0.3444 -0.1528
  254EMI    H2" 4825   0.170   1.992   3.354 -1.1067 -0.2125 -0.2871
  254EMI    H2" 4826   0.120   2.007   3.183  2.0478  1.4202 -1.0962
  255EMI     N1 4827   1.788   2.825   1.546  0.1955 -0.4712 -0.8253
  255EMI     C2 4828   1.775   2.946   1.614 -0.1202 -0.3281 -0.2399
  255EMI     N3 4829   1.888   2.975   1.675  0.1631  0.5699 -0.7269
  255EMI     C4 4830   1.976   2.871   1.653  0.7760  0.3013  0.3206
  255EMI     C5 4831   1.920   2.779   1.572 -0.0553 -0.0760  0.0214
  255EMI     H2 4832   1.685   3.005   1.624  0.2869  1.8991 -1.3820
  255EMI     H4 4833   2.071   2.872   1.708  0.2974  1.5873  0.5781
  255EMI     H5 4834   1.964   2.686   1.539  0.9984 -0.8234 -0.0491
  255EMI    C1' 4835   1.921   3.091   1.760  0.4973  0.3235  0.2416
  255EMI    H1' 4836   1.877   3.181   1.725  1.8705  2.2828 -3.3603
  255EMI    H1' 4837   1.902   3.070   1.861  1.1956 -0.4625 -0.5965
  255EMI    H1' 4838   2.023   3.114   1.745 -0.4601  1.9990 -0.0067
  255EMI    C1" 4839   1.686   2.743   1.477  0.3838 -0.1364 -0.7821
  255EMI    H1" 4840   1.724   2.698   1.390  0.4946  1.5675  0.6329
  255EMI    H1" 4841   1.600   2.812   1.447 -0.6588  3.2409 -1.7770
  255EMI    C2" 4842   1.633   2.634   1.571  0.3033  0.6832 -0.3024
  255EMI    H2" 4843   1.709   2.568   1.600 -0.9470 -2.1132  1.9874
  255EMI    H2" 4844   1.593   2.677   1.668 -1.8186 -1.7352  0.4048
  255EMI    H2" 4845   1.557   2.573   1.520  1.6833  0.3132 -0.2145
  256EMI     N1 4846   3.382   1.068   3.726 -0.1279 -0.0294 -0.3154
  256EMI     C2 4847   3.303   1.163   3.777  0.2185  0.0885 -0.1067
  256EMI     N3 4848   3.370   1.245   3.860 -0.0808 -0.7073 -0.0926
  256EMI     C4 4849   3.501   1.208   3.860  0.3932 -0.8132  0.4139
  256EMI     C5 4850   3.512   1.101   3.775 -0.4155  0.1887  0.6125
  256EMI     H2 4851   3.198   1.183   3.758 -1.4132 -0.0690  0.2074
  256EMI     H4 4852   3.576   1.268   3.913 -1.0219  1.8583 -2.2902
  256EMI     H5 4853   3.607   1.058   3.750  0.0164  0.0721  1.5476
  256EMI    C1' 4854   3.318   1.354   3.941  0.0779  0.5896 -0.3255
  256EMI    H1' 4855   3.322   1.440   3.878 -0.7964 -0.5780  1.2672
  256EMI    H1' 4856   3.211   1.333   3.971 -0.6459  0.4625  0.6148
  256EMI    H1' 4857   3.382   1.362   4.033 -0.1373 -0.2078 -0.1392
  256EMI    C1" 4858   3.349   0.962   3.632  0.1174  0.1203 -0.3114
  256EMI    H1" 4859   3.244   0.971   3.600  1.2580  0.8562  2.4306
  256EMI    H1" 4860   3.359   0.864   3.680  2.4139 -0.5179  2.3542
  256EMI    C2" 4861   3.444   0.965   3.513 -0.3288 -0.5562 -0.6981
  256EMI    H2" 4862   3.428   1.062   3.467 -0.2286  2.3763  0.7819
  256EMI    H2" 4863   3.546   0.955   3.554  0.8471 -1.2686 -1.3385
  256EMI    H2" 4864   3.426   0.878   3.448 -2.1351 -3.8602  0.0687
  257EMI     N1 4865   5.838   5.756   5.970  0.3747  0.3971  0.0544
  257EMI     C2 4866   5.880   5.877   5.962  0.0931  0.2027  0.0013
  257EMI     N3 4867   5.798   5.954   6.030  0.3785  0.7215 -0.0738
  257EMI     C4 4868   5.683   5.881   6.063  0.0386  1.1084  0.1225
  257EMI     C5 4869   5.715   5.755   6.030  0.2246  0.2522 -0.3008
  257EMI     H2 4870   5.976   5.908   5.917  1.0536  0.3466  3.9922
  257EMI     H4 4871   5.593   5.922   6.101  0.1012 -1.3922  1.8816
  257EMI     H5 4872   5.662   5.660   6.043  1.8393  1.4714 -0.6029
  257EMI    C1' 4873   5.804   6.105   6.048 -0.0863  0.2257 -0.2294
  257EMI    H1' 4874   5.869   6.152   5.970  6.9641  0.7960 -0.0911
  257EMI    H1' 4875   5.699   6.145   6.035  3.0416 -0.1091 -1.4736
  257EMI    H1' 4876   5.842   6.133   6.148  1.0021  0.0645  1.3671
  257EMI    C1" 4877   5.900   5.626   5.930 -0.5171  0.2818  0.1233
  257EMI    H1" 4878   5.822   5.552   5.949 -0.5236 -1.0228 -0.3766
  257EMI    H1" 4879   5.978   5.619   5.998 -0.7312  0.3506 -3.3380
  257EMI    C2" 4880   5.957   5.640   5.790 -0.7514 -0.2086  0.6064
  257EMI    H2" 4881   5.890   5.696   5.728 -1.4135 -3.0940  3.4393
  257EMI    H2" 4882   6.048   5.699   5.793  1.0609 -1.8347  1.0835
  257EMI    H2" 4883   5.968   5.543   5.744  1.0177 -1.1622 -1.1523
  258EMI     N1 4884   0.576   2.500   0.124 -0.2859  0.3409  0.6085
  258EMI     C2 4885   0.579   2.579   0.017  0.2389  0.0164 -0.0381
  258EMI     N3 4886   0.550   2.513  -0.093  0.0462 -0.7930  0.3273
  258EMI     C4 4887   0.542   2.381  -0.066  0.0475 -0.2178  0.2623
  258EMI     C5 4888   0.556   2.376   0.069 -0.2062  0.6964  0.3952
  258EMI     H2 4889   0.604   2.684   0.023  0.1253 -1.6749  0.3104
  258EMI     H4 4890   0.514   2.307  -0.147  0.7834 -0.8906 -1.5134
  258EMI     H5 4891   0.565   2.285   0.131 -1.2795 -2.3160 -0.9033
  258EMI    C1' 4892   0.550   2.554  -0.234 -0.8638 -0.2765  0.8700
  258EMI    H1' 4893   0.535   2.467  -0.299  1.7080  2.1177  1.1976
  258EMI    H1' 4894   0.466   2.625  -0.257 -2.7232  2.3700  0.4772
  258EMI    H1' 4895   0.640   2.594  -0.270  3.7868 -5.0205 -2.4854
  258EMI    C1" 4896   0.589   2.524   0.265  0.0418 -0.0792  0.0122
  258EMI    H1" 4897   0.698   2.538   0.287  2.1828  0.3915  0.3963
  258EMI    H1" 4898   0.550   2.433   0.311  0.0449  2.1595 -2.3935
  258EMI    C2" 4899   0.519   2.653   0.314 -0.1203  0.6761  0.1253
  258EMI    H2" 4900   0.484   2.642   0.418  1.1318 -1.1527  3.8125
  258EMI    H2" 4901   0.590   2.734   0.323 -1.2842  1.3567  4.3698
  258EMI    H2" 4902   0.443   2.678   0.246  1.0290  0.1939 -2.7452
  259EMI     N1 4903   2.492   5.602   4.695 -0.4402 -0.4207 -0.3247
  259EMI     C2 4904   2.604   5.609   4.767 -1.1587 -0.1573  0.0278
  259EMI     N3 4905   2.594   5.522   4.870 -0.4025 -0.2793 -1.0365
  259EMI     C4 4906   2.472   5.465   4.871  1.1519  0.1251 -0.0593
  259EMI     C5 4907   2.408   5.514   4.763  0.2323  0.2148  0.2956
  259EMI     H2 4908   2.685   5.680   4.746 -0.7286  0.9242  1.4974
  259EMI     H4 4909   2.421   5.399   4.942 -0.4748  0.6268  0.8326
  259EMI     H5 4910   2.304   5.493   4.729 -3.0122  0.5303 -1.4923
  259EMI    C1' 4911   2.690   5.493   4.979 -0.2126  0.1426  0.4379
  259EMI    H1' 4912   2.658   5.521   5.076 -0.9437 -0.7280  1.6023
  259EMI    H1' 4913   2.703   5.383   4.972 -1.9905  0.3001  1.1468
  259EMI    H1' 4914   2.780   5.536   4.951  0.5270 -1.7877  0.6067
  259EMI    C1" 4915   2.445   5.680   4.586 -0.0498  0.4396 -0.1525
  259EMI    H1" 4916   2.391   5.770   4.634  0.3672  1.6506  0.1642
  259EMI    H1" 4917   2.372   5.616   4.543  0.8094 -0.2799 -0.6845
  259EMI    C2" 4918   2.553   5.725   4.488 -0.0359  0.1874  0.2071
  259EMI    H2" 4919   2.627   5.785   4.540 -0.2532 -3.2261  0.7531
  259EMI    H2" 4920   2.613   5.634   4.460 -0.7484 -0.1127  1.1389
  259EMI    H2" 4921   2.519   5.791   4.406  1.8124  1.9062 -0.7637
  260EMI     N1 4922   1.338   1.162   5.535  0.2153  0.2141  0.3423
  260EMI     C2 4923   1.249   1.247   5.475 -0.0424  0.0358 -0.7588
  260EMI     N3 4924   1.128   1.240   5.534 -0.7012 -0.0996 -0.2428
  260EMI     C4 4925   1.134   1.146   5.629 -0.1600  0.5269 -0.6394
  260EMI     C5 4926   1.264   1.098   5.628 -0.5346 -0.3345 -0.1858
  260EMI     H2 4927   1.279   1.316   5.388 -1.0105 -1.3764  2.0443
  260EMI     H4 4928   1.057   1.105   5.697 -1.7860 -1.4693 -1.7784
  260EMI     H5 4929   1.297   1.015   5.692 -1.9392  0.8776 -0.5348
  260EMI    C1' 4930   0.997   1.299   5.499 -0.6987  0.8969 -0.4463
  260EMI    H1' 4931   0.914   1.256   5.561 -1.2933  0.0943 -1.9768
  260EMI    H1' 4932   0.987   1.406   5.521  0.6277 -1.4980 -0.7224
  260EMI    H1' 4933   0.979   1.274   5.395 -0.1357 -0.3908  0.1515
  260EMI    C1" 4934   1.478   1.131   5.496 -0.2528  0.5571 -0.5489
  260EMI    H1" 4935   1.530   1.077   5.575  0.2253  0.0213  0.1048
  260EMI    H1" 4936   1.537   1.222   5.476 -1.0324  3.8352 -1.2975
  260EMI    C2" 4937   1.480   1.036   5.375  1.0368  0.3081 -0.1142
  260EMI    H2" 4938   1.447   0.938   5.407  4.0260 -0.6100  0.3477
  260EMI    H2" 4939   1.416   1.077   5.293 -0.1969 -0.1100  0.2750
  260EMI    H2" 4940   1.588   1.026   5.343  3.3075  0.1988 -0.2219
  261EMI     N1 4941   4.175   5.858   2.715  0.5534  0.3361  0.1709
  261EMI     C2 4942   4.171   5.731   2.679  0.1647  0.2655  0.0064
  261EMI     N3 4943   4.056   5.678   2.723 -0.2138  0.2318 -0.6260
  261EMI     C4 4944   3.977   5.778   2.770 -0.6287  0.3246  0.0511
  261EMI     C5 4945   4.049   5.890   2.768  0.1995  0.0781 -0.3134
  261EMI     H2 4946   4.257   5.678   2.644  1.0717  1.5637  2.0157
  261EMI     H4 4947   3.875   5.763   2.793 -0.7674  2.6046 -1.5175
  261EMI     H5 4948   4.021   5.987   2.802 -2.4409  0.5951 -0.0233
  261EMI    C1' 4949   4.024   5.537   2.738 -0.4259  0.2482  0.6268
  261EMI    H1' 4950   3.922   5.527   2.704 -2.2236  3.0574  0.8229
  261EMI    H1' 4951   4.090   5.475   2.678 -1.3970 -1.0903  1.6196
  261EMI    H1' 4952   4.040   5.504   2.840  1.5738 -0.8408 -0.9438
  261EMI    C1" 4953   4.277   5.964   2.694 -0.2236  0.4126 -0.4677
  261EMI    H1" 4954   4.225   6.054   2.712  1.3237 -1.9870  2.2201
  261EMI    H1" 4955   4.314   5.961   2.592  0.6887 -2.1869 -3.3836
  261EMI    C2" 4956   4.399   5.968   2.785  0.3652  0.2445  0.1799
  261EMI    H2" 4957   4.472   6.030   2.741 -0.4808 -0.7136 -1.1525
  261EMI    H2" 4958   4.370   6.002   2.888  2.9853  5.1998  1.1051
  261EMI    H2" 4959   4.460   5.872   2.797  2.8588  0.4321  3.5813
  262EMI     N1 4960   1.165   1.114   0.347  0.7248 -0.0972  0.3338
  262EMI     C2 4961   1.064   1.196   0.338 -0.1091  0.7214 -0.0713
  262EMI     N3 4962   0.980   1.185   0.439 -0.0072  0.6926 -0.7493
  262EMI     C4 4963   1.040   1.101   0.527 -0.4220  0.0372 -0.5062
  262EMI     C5 4964   1.144   1.043   0.464  0.0851  0.1722  0.0049
  262EMI     H2 4965   1.053   1.269   0.257  1.6078 -1.0373  0.3514
  262EMI     H4 4966   1.010   1.087   0.630  1.5270 -0.3027 -1.9529
  262EMI     H5 4967   1.207   0.967   0.510 -1.8758 -1.7982  0.5826
  262EMI    C1' 4968   0.858   1.245   0.478 -0.0609 -0.1841  0.5560
  262EMI    H1' 4969   0.887   1.333   0.543 -1.8288  2.3712 -0.7317
  262EMI    H1' 4970   0.810   1.285   0.388 -0.4650 -2.2578 -0.9948
  262EMI    H1' 4971   0.793   1.180   0.529 -0.5254 -0.6682 -2.6755
  262EMI    C1" 4972   1.300   1.119   0.283 -0.0749  0.2504 -0.0412
  262EMI    H1" 4973   1.356   1.022   0.303  2.7382 -0.1787  0.9242
  262EMI    H1" 4974   1.367   1.195   0.329  1.6853 -0.8737 -1.7055
  262EMI    C2" 4975   1.303   1.147   0.140  0.3953 -0.2145  0.3406
  262EMI    H2" 4976   1.235   1.231   0.121 -1.3837 -0.1652  1.4936
  262EMI    H2" 4977   1.402   1.167   0.114 -2.4153 -0.5867 -1.1465
  262EMI    H2" 4978   1.263   1.058   0.094 -0.7467 -2.1085  2.8190
  263EMI     N1 4979   5.318   5.469   3.845  0.3173 -0.0812  0.5326
  263EMI     C2 4980   5.225   5.459   3.936 -0.0104  0.0460 -0.1912
  263EMI     N3 4981   5.207   5.581   3.992 -0.0368  0.1311  0.4513
  263EMI     C4 4982   5.288   5.673   3.933 -0.3628 -0.4498  0.0002
  263EMI     C5 4983   5.361   5.598   3.841  0.3932  0.6113 -0.2959
  263EMI     H2 4984   5.177   5.361   3.979 -0.3337 -1.4219 -1.5765
  263EMI     H4 4985   5.292   5.778   3.948  1.1412  2.8039  1.8890
  263EMI     H5 4986   5.437   5.636   3.768 -0.9976  1.1913  1.8616
  263EMI    C1' 4987   5.108   5.621   4.095 -0.4574 -0.4360  0.3167
  263EMI    H1' 4988   5.010   5.578   4.070 -0.6778  1.4611 -0.2368
  263EMI    H1' 4989   5.132   5.584   4.198  1.1739 -2.0783  0.2427
  263EMI    H1' 4990   5.111   5.731   4.098  1.1975 -0.4947  0.3545
  263EMI    C1" 4991   5.381   5.369   3.754 -0.4311 -0.4095 -0.0683
  263EMI    H1" 4992   5.375   5.406   3.652 -0.2084 -2.7536  1.1547
  263EMI    H1" 4993   5.325   5.279   3.753  2.9605 -1.5659  2.5428
  263EMI    C2" 4994   5.529   5.359   3.782  0.6715  0.2900  0.5621
  263EMI    H2" 4995   5.535   5.345   3.895  0.0668  0.5336 -0.1128
  263EMI    H2" 4996   5.573   5.282   3.730 -0.2247 -1.7785  0.2862
  263EMI    H2" 4997   5.579   5.457   3.757  2.2691  2.9532  0.4516
  264EMI     N1 4998   1.519   3.184   2.555  0.4365 -0.2838  0.4137
  264EMI     C2 4999   1.453   3.223   2.445 -0.2110  0.1540 -0.1040
  264EMI     N3 5000   1.363   3.128   2.411 -0.4809 -0.5690 -0.2458
  264EMI     C4 5001   1.385   3.023   2.500 -0.1365  0.2235 -0.0445
  264EMI     C5 5002   1.479   3.055   2.588  0.3114 -0.0615 -0.0257
  264EMI     H2 5003   1.466   3.319   2.398 -2.4166  0.1268  0.0842
  264EMI     H4 5004   1.337   2.926   2.492 -0.5958  1.4335 -2.4658
  264EMI     H5 5005   1.522   3.004   2.670  0.2996  1.8263  0.3487
  264EMI    C1' 5006   1.267   3.118   2.306 -0.3683  0.1471  0.6018
  264EMI    H1' 5007   1.295   3.026   2.249 -1.7618  1.0444  1.4377
  264EMI    H1' 5008   1.167   3.106   2.340  1.7554  1.1776  4.9997
  264EMI    H1' 5009   1.269   3.208   2.242 -2.4478  2.0871  0.2724
  264EMI    C1" 5010   1.601   3.260   2.649 -0.2104  0.5431  0.1947
  264EMI    H1" 5011   1.705   3.288   2.626  2.6076 -1.1645 -0.8991
  264EMI    H1" 5012   1.601   3.196   2.737  2.7882 -1.0529 -2.9743
  264EMI    C2" 5013   1.536   3.388   2.698 -0.3041  0.7058  0.2336
  264EMI    H2" 5014   1.513   3.457   2.622  1.5032 -1.1805 -0.2691
  264EMI    H2" 5015   1.451   3.353   2.754 -0.3850 -4.5271  3.1988
  264EMI    H2" 5016   1.611   3.429   2.762 -4.1159  0.1251 -1.5398
  265EMI     N1 5017   2.065   0.570   0.275 -0.4027  0.3048 -0.2205
  265EMI     C2 5018   2.172   0.596   0.195 -0.0853  0.1277 -0.0769
  265EMI     N3 5019   2.211   0.481   0.137  0.3794 -0.1042  0.9340
  265EMI     C4 5020   2.140   0.382   0.190  0.0675  0.2191 -0.0507
  265EMI     C5 5021   2.052   0.434   0.278  0.5414 -0.7550  0.7330
  265EMI     H2 5022   2.209   0.688   0.174 -1.2665 -1.7971 -1.0741
  265EMI     H4 5023   2.162   0.276   0.171  2.1636 -1.0276 -0.5360
  265EMI     H5 5024   1.972   0.391   0.332  0.2709  0.9460 -0.8540
  265EMI    C1' 5025   2.320   0.451   0.045  0.6076  0.7607  0.0592
  265EMI    H1' 5026   2.415   0.448   0.101 -1.1860  1.2717  1.1527
  265EMI    H1' 5027   2.307   0.344   0.021 -1.9662  0.3849 -0.8074
  265EMI    H1' 5028   2.317   0.525  -0.032  1.9614 -0.9960 -0.9375
  265EMI    C1" 5029   1.970   0.657   0.343  0.1030  0.2434  0.5850
  265EMI    H1" 5030   1.873   0.648   0.285 -4.3990  1.0979 -0.7355
  265EMI    H1" 5031   2.007   0.756   0.315  0.9339 -0.8330  0.5735
  265EMI    C2" 5032   1.971   0.634   0.497  0.4568  0.0170 -0.8370
  265EMI    H2" 5033   2.074   0.649   0.529  0.5439  0.4378  0.0413
  265EMI    H2" 5034   1.899   0.706   0.540 -1.1644  1.1104 -1.8089
  265EMI    H2" 5035   1.934   0.535   0.522 -0.7474  2.1427 -0.6656
  266EMI     N1 5036   0.791   0.240   2.862 -0.2096 -0.6778 -0.4136
  266EMI     C2 5037   0.899   0.177   2.905  0.0597  0.1281  0.1436
  266EMI     N3 5038   0.868   0.045   2.927 -0.2079  0.1223 -0.1959
  266EMI     C4 5039   0.734   0.024   2.896 -0.5248  0.3405  0.0042
  266EMI     C5 5040   0.692   0.145   2.850  0.2425 -0.1420 -0.3413
  266EMI     H2 5041   1.000   0.210   2.910 -1.2194 -1.5024 -0.0713
  266EMI     H4 5042   0.678  -0.077   2.902  0.1387 -1.4019  1.5515
  266EMI     H5 5043   0.592   0.173   2.808 -0.5646 -0.8622 -1.0640
  266EMI    C1' 5044   0.950  -0.058   2.986 -0.0723 -0.1447  0.4848
  266EMI    H1' 5045   0.911  -0.154   2.958  0.0603  1.5816 -1.4080
  266EMI    H1' 5046   1.047  -0.054   2.934 -3.4083  0.7095  3.6206
  266EMI    H1' 5047   0.950  -0.041   3.091  0.3997 -1.7938 -2.0874
  266EMI    C1" 5048   0.769   0.380   2.811  0.0537 -0.4087 -0.3804
  266EMI    H1" 5049   0.757   0.446   2.893  2.2486 -1.1243 -0.8110
  266EMI    H1" 5050   0.670   0.376   2.758 -0.7637 -0.4587 -0.4238
  266EMI    C2" 5051   0.886   0.414   2.724  0.6257  0.4108  0.0625
  266EMI    H2" 5052   0.965   0.450   2.782 -0.3099  0.8487 -1.5314
  266EMI    H2" 5053   0.927   0.325   2.676  2.1826 -0.3632 -0.2070
  266EMI    H2" 5054   0.856   0.491   2.645 -3.2701  1.1104  0.4500
  267EMI     N1 5055   3.384   4.695   0.997  0.5260  0.1332  0.9704
  267EMI     C2 5056   3.329   4.616   1.091 -0.3328 -0.2987  0.0664
  267EMI     N3 5057   3.272   4.508   1.035  0.0282 -0.2207  0.1187
  267EMI     C4 5058   3.277   4.531   0.898 -0.4926 -0.0543 -0.1269
  267EMI     C5 5059   3.347   4.645   0.874 -0.1205 -0.8445 -0.2726
  267EMI     H2 5060   3.351   4.628   1.200 -1.0497 -1.5914 -1.5004
  267EMI     H4 5061   3.245   4.464   0.819  3.2291 -3.0111 -1.0900
  267EMI     H5 5062   3.369   4.682   0.775 -2.0098  0.4162 -0.2588
  267EMI    C1' 5063   3.214   4.390   1.088 -0.2628 -0.2012  0.9994
  267EMI    H1' 5064   3.195   4.398   1.198 -2.4341  2.6702  1.1652
  267EMI    H1' 5065   3.119   4.368   1.043 -3.0778 -0.5680 -1.4825
  267EMI    H1' 5066   3.274   4.301   1.074 -1.0360 -0.6396 -3.1022
  267EMI    C1" 5067   3.473   4.811   1.004 -0.0799 -0.5281 -0.7976
  267EMI    H1" 5068   3.477   4.861   1.105 -0.8758  0.6361 -2.2329
  267EMI    H1" 5069   3.437   4.878   0.932 -0.2267 -1.0186  1.4822
  267EMI    C2" 5070   3.617   4.778   0.965  0.0089  0.4060  0.3413
  267EMI    H2" 5071   3.610   4.737   0.866 -0.7107  0.9700 -0.8375
  267EMI    H2" 5072   3.677   4.867   0.965 -2.1541  0.2085  0.6040
  267EMI    H2" 5073   3.669   4.706   1.038  1.4533  1.3398 -1.3991
  268EMI     N1 5074   4.823   5.467   2.374  0.1879  0.0470 -0.0413
  268EMI     C2 5075   4.840   5.596   2.346 -0.1234  0.5698 -0.0487
  268EMI     N3 5076   4.872   5.617   2.216 -0.2311 -0.4461 -0.0165
  268EMI     C4 5077   4.880   5.492   2.158 -0.0810  0.0744 -0.0002
  268EMI     C5 5078   4.848   5.401   2.256  0.0969  1.2206 -0.2378
  268EMI     H2 5079   4.825   5.671   2.421 -1.9188  0.6546 -1.2058
  268EMI     H4 5080   4.922   5.473   2.060 -0.9187  1.7916 -0.7756
  268EMI     H5 5081   4.852   5.296   2.245  2.4361  1.1920  0.7204
  268EMI    C1' 5082   4.900   5.745   2.155 -0.8042 -0.2292  0.5000
  268EMI    H1' 5083   4.880   5.823   2.228  0.9323 -1.4183  0.6914
  268EMI    H1' 5084   5.004   5.753   2.134 -0.4979  0.7739 -1.0106
  268EMI    H1' 5085   4.832   5.762   2.071 -0.4152  0.8894 -2.1202
  268EMI    C1" 5086   4.788   5.392   2.505 -0.4264 -0.1440  0.2930
  268EMI    H1" 5087   4.839   5.295   2.494  4.3363  0.5444  1.6785
  268EMI    H1" 5088   4.681   5.382   2.513 -1.0377  2.0923  2.8882
  268EMI    C2" 5089   4.853   5.468   2.623 -0.0892  0.3900 -0.8991
  268EMI    H2" 5090   4.800   5.431   2.709  1.1083  0.8380  1.0253
  268EMI    H2" 5091   4.965   5.454   2.635  2.0870 -0.8634  2.7062
  268EMI    H2" 5092   4.841   5.576   2.620  0.9399 -1.0507  1.8229
  269EMI     N1 5093   2.505   4.871   0.799  0.2223  0.4506  0.3648
  269EMI     C2 5094   2.554   4.959   0.888  0.2050  0.0295  0.5024
  269EMI     N3 5095   2.573   4.894   1.008  0.2057  0.3899 -0.0023
  269EMI     C4 5096   2.544   4.764   0.986 -0.8899  0.0555 -1.5982
  269EMI     C5 5097   2.503   4.749   0.858  0.0859  1.0962  0.6539
  269EMI     H2 5098   2.555   5.068   0.872  1.1861 -1.6917  1.7544
  269EMI     H4 5099   2.567   4.691   1.064  1.2919 -0.7988  0.9871
  269EMI     H5 5100   2.488   4.657   0.806  0.4707 -0.0438 -1.5565
  269EMI    C1' 5101   2.639   4.936   1.129  0.0737 -1.0351  0.8203
  269EMI    H1' 5102   2.620   5.045   1.138  1.5025 -0.0920  1.8763
  269EMI    H1' 5103   2.589   4.880   1.202 -2.5859  2.4948  0.1549
  269EMI    H1' 5104   2.742   4.913   1.124 -3.2114  1.5096 -1.1493
  269EMI    C1" 5105   2.460   4.903   0.660 -0.4208  0.3392 -0.8022
  269EMI    H1" 5106   2.361   4.950   0.669  1.0682 -0.1096  0.5323
  269EMI    H1" 5107   2.439   4.813   0.600  0.5175  0.9778  0.1367
  269EMI    C2" 5108   2.554   5.002   0.582  0.8304  0.0770  0.6990
  269EMI    H2" 5109   2.512   5.020   0.482  0.3922  0.2203  1.1119
  269EMI    H2" 5110   2.562   5.088   0.653  1.6995 -1.6102 -0.6679
  269EMI    H2" 5111   2.651   4.955   0.566  0.8284  1.8943 -1.3540
  270EMI     N1 5112   0.188   0.348   5.814 -0.3412  0.1420  0.1194
  270EMI     C2 5113   0.188   0.375   5.943  0.1436  0.5343 -0.3387
  270EMI     N3 5114   0.118   0.483   5.967 -0.0660  0.2748 -0.2940
  270EMI     C4 5115   0.078   0.532   5.845 -0.3100  0.3247 -0.5216
  270EMI     C5 5116   0.124   0.455   5.744 -0.4689  0.1989 -0.5388
  270EMI     H2 5117   0.255   0.323   6.011 -3.2866  1.4159 -0.5838
  270EMI     H4 5118   0.027   0.624   5.840  3.0556 -0.8843  3.1746
  270EMI     H5 5119   0.119   0.465   5.636  0.6423 -0.8336 -3.4099
  270EMI    C1' 5120   0.074   0.538   6.096 -0.1646 -0.1874 -0.0371
  270EMI    H1' 5121   0.106   0.640   6.106  1.6082 -0.8134 -0.8866
  270EMI    H1' 5122  -0.035   0.528   6.097  1.9570 -0.3980 -0.2509
  270EMI    H1' 5123   0.101   0.469   6.183  0.6999 -0.8094  0.5326
  270EMI    C1" 5124   0.252   0.236   5.743  0.1863 -0.4341 -0.1204
  270EMI    H1" 5125   0.186   0.193   5.666 -0.1976 -2.3463 -2.5635
  270EMI    H1" 5126   0.282   0.161   5.807 -1.7191  0.9308  1.7628
  270EMI    C2" 5127   0.382   0.274   5.675 -0.7198  0.2947  0.0844
  270EMI    H2" 5128   0.457   0.333   5.732 -1.0233 -0.7216  2.4422
  270EMI    H2" 5129   0.427   0.176   5.667  0.7438  1.9100 -1.2136
  270EMI    H2" 5130   0.358   0.314   5.576 -0.6583 -0.1425  1.8544
  271EMI     N1 5131   2.214   4.032   4.017 -0.8986  0.7321  0.5226
  271EMI     C2 5132   2.147   3.944   3.943 -0.6601  0.0913  0.4475
  271EMI     N3 5133   2.110   4.000   3.826 -0.8483  0.8570  0.5152
  271EMI     C4 5134   2.160   4.126   3.819  0.3838 -0.1685  0.1977
  271EMI     C5 5135   2.224   4.149   3.933  0.1971 -0.3506 -0.0683
  271EMI     H2 5136   2.126   3.847   3.966  2.3810  0.5131  2.0442
  271EMI     H4 5137   2.143   4.182   3.731  2.6207  0.9921 -0.8967
  271EMI     H5 5138   2.279   4.244   3.955 -1.1569  1.3379 -0.7036
  271EMI    C1' 5139   2.055   3.929   3.706 -0.4511 -0.1080  0.3604
  271EMI    H1' 5140   1.998   4.004   3.652  2.5344 -0.4447  1.7042
  271EMI    H1' 5141   2.137   3.892   3.647 -0.6242 -0.0323 -3.2075
  271EMI    H1' 5142   2.001   3.839   3.730 -0.0447 -0.6512  3.5099
  271EMI    C1" 5143   2.263   4.028   4.149  0.5839 -0.1798  0.4432
  271EMI    H1" 5144   2.197   4.081   4.214  0.3237 -2.6420 -2.6257
  271EMI    H1" 5145   2.359   4.073   4.153 -0.3153  5.6007 -3.0271
  271EMI    C2" 5146   2.282   3.883   4.213 -0.5338  0.0757 -0.2909
  271EMI    H2" 5147   2.260   3.889   4.315 -0.5458 -2.2017 -2.8864
  271EMI    H2" 5148   2.213   3.809   4.171 -0.4723 -0.9028 -1.1141
  271EMI    H2" 5149   2.379   3.832   4.189 -1.0524  0.9867 -0.1494
  272EMI     N1 5150   2.768   2.877   4.425  0.3408 -0.2224  0.8858
  272EMI     C2 5151   2.816   2.982   4.351  0.5112 -0.7375 -0.7623
  272EMI     N3 5152   2.827   3.092   4.432  1.0798  0.2876 -0.0485
  272EMI     C4 5153   2.776   3.051   4.556 -0.2268  0.1463 -0.1571
  272EMI     C5 5154   2.751   2.917   4.554 -0.3251  0.4248 -0.6499
  272EMI     H2 5155   2.838   2.978   4.248  2.4665 -0.6612  1.4898
  272EMI     H4 5156   2.775   3.105   4.650  1.0036 -1.5099  0.4780
  272EMI     H5 5157   2.714   2.853   4.633 -1.2743  1.3287  0.6056
  272EMI    C1' 5158   2.859   3.233   4.408 -0.0069  0.1552 -0.5129
  272EMI    H1' 5159   2.773   3.288   4.385  0.9092  0.0269 -1.5523
  272EMI    H1' 5160   2.922   3.254   4.493 -1.0054  0.2553  0.0330
  272EMI    H1' 5161   2.917   3.248   4.322 -1.9801 -1.9373 -1.0200
  272EMI    C1" 5162   2.754   2.731   4.381  0.1530  0.7668 -0.3748
  272EMI    H1" 5163   2.796   2.673   4.462 -2.2032  2.0795 -2.6780
  272EMI    H1" 5164   2.794   2.717   4.282  0.2837  2.4785  1.7904
  272EMI    C2" 5165   2.608   2.690   4.388 -0.8022 -0.4113  0.3052
  272EMI    H2" 5166   2.573   2.703   4.493 -0.0384 -0.1250 -1.8762
  272EMI    H2" 5167   2.548   2.752   4.322  0.2930  1.0479  1.0584
  272EMI    H2" 5168   2.602   2.589   4.352  0.8841  1.0239 -0.0093
  273EMI     N1 5169   0.404   3.100   2.910 -0.6031 -0.0927  0.1834
  273EMI     C2 5170   0.288   3.045   2.866  0.3449 -0.3398  0.4595
  273EMI     N3 5171   0.203   3.024   2.964  0.2512 -0.5371  0.1482
  273EMI     C4 5172   0.264   3.075   3.071 -0.0940  0.1869 -0.1967
  273EMI     C5 5173   0.388   3.113   3.046 -0.2096 -0.1760 -0.2103
  273EMI     H2 5174   0.265   3.005   2.768  2.0141 -0.8573 -1.4248
  273EMI     H4 5175   0.209   3.079   3.167  1.0911  0.9846 -1.6372
  273EMI     H5 5176   0.457   3.156   3.112  1.3855 -1.0870  0.0176
  273EMI    C1' 5177   0.078   2.950   2.967  0.0547  0.7447  0.4604
  273EMI    H1' 5178   0.071   2.869   2.896 -0.0167  0.7618 -1.3381
  273EMI    H1' 5179   0.062   2.908   3.063 -3.0530 -1.8127 -1.6628
  273EMI    H1' 5180  -0.001   3.017   2.951  1.5516 -1.4137  2.1717
  273EMI    C1" 5181   0.523   3.129   2.828 -0.1833  0.0295 -0.2363
  273EMI    H1" 5182   0.513   3.105   2.722 -1.4726 -0.0451  0.7011
  273EMI    H1" 5183   0.608   3.074   2.866  0.1545  1.8948  1.0747
  273EMI    C2" 5184   0.555   3.275   2.855 -0.2917  0.0460  0.2283
  273EMI    H2" 5185   0.552   3.297   2.963  1.4439  0.1795 -2.1414
  273EMI    H2" 5186   0.652   3.296   2.821  1.4152  0.3495 -0.6930
  273EMI    H2" 5187   0.474   3.334   2.801 -0.6847 -0.3394 -1.7942
  274EMI     N1 5188   6.022   2.903   1.125  0.9491 -0.0528 -0.1674
  274EMI     C2 5189   5.897   2.885   1.175  0.3521 -0.7578  0.0665
  274EMI     N3 5190   5.899   2.781   1.259 -0.0278 -0.2039 -0.1767
  274EMI     C4 5191   6.027   2.737   1.268 -0.7240 -0.2134  0.2493
  274EMI     C5 5192   6.105   2.814   1.191 -0.6008 -0.6016 -0.6184
  274EMI     H2 5193   5.807   2.936   1.143  0.2885 -0.4640  2.5386
  274EMI     H4 5194   6.069   2.654   1.327  1.4143 -1.9585 -0.1537
  274EMI     H5 5195   6.213   2.804   1.172  1.7589 -1.4043  0.3766
  274EMI    C1' 5196   5.788   2.710   1.329  0.2503 -0.0436  0.8227
  274EMI    H1' 5197   5.727   2.781   1.392  1.8697 -0.0760  2.0996
  274EMI    H1' 5198   5.727   2.661   1.252 -1.3219  1.3505 -2.0089
  274EMI    H1' 5199   5.826   2.630   1.396  1.1941 -1.7322 -2.2883
  274EMI    C1" 5200   6.073   2.995   1.022  0.7833  0.2033 -0.1683
  274EMI    H1" 5201   6.178   3.016   1.037 -0.7280  2.1030 -1.8839
  274EMI    H1" 5202   6.030   3.093   1.038 -1.3073 -1.3496 -2.5948
  274EMI    C2" 5203   6.048   2.944   0.882 -0.6974 -0.4067  0.8040
  274EMI    H2" 5204   6.100   2.851   0.858  2.6364 -0.4676  3.5435
  274EMI    H2" 5205   5.942   2.924   0.893  0.7409  0.4596 -0.4517
  274EMI    H2" 5206   6.065   3.020   0.810  0.1317 -0.5019 -0.8432
  275EMI     N1 5207   2.489   1.085   3.556  0.9018 -0.2687  0.0047
  275EMI     C2 5208   2.484   1.053   3.688  0.0711  0.6032  0.4758
  275EMI     N3 5209   2.612   1.046   3.729 -0.7580 -0.2689 -0.0330
  275EMI     C4 5210   2.695   1.081   3.631  0.4291  0.8291 -0.0963
  275EMI     C5 5211   2.621   1.103   3.526  0.2866 -0.3540  0.2244
  275EMI     H2 5212   2.391   1.023   3.739  0.2318 -1.0853 -0.7394
  275EMI     H4 5213   2.797   1.095   3.662  1.9638  1.6084 -0.1962
  275EMI     H5 5214   2.644   1.132   3.428 -0.4833 -0.8084 -2.5360
  275EMI    C1' 5215   2.669   1.006   3.869  0.1414  0.2014 -0.2416
  275EMI    H1' 5216   2.742   0.925   3.861 -0.0414  1.1750  1.6260
  275EMI    H1' 5217   2.706   1.083   3.928  1.2306  2.0052  1.8521
  275EMI    H1' 5218   2.590   0.959   3.927 -0.7978  0.9288 -2.6716
  275EMI    C1" 5219   2.382   1.094   3.458 -0.3859 -0.0769  0.8006
  275EMI    H1" 5220   2.419   1.158   3.378  1.9379 -2.3561  0.1295
  275EMI    H1" 5221   2.301   1.140   3.499  1.7183  0.6671 -1.9539
  275EMI    C2" 5222   2.346   0.961   3.394 -0.0446 -0.0512 -0.0531
  275EMI    H2" 5223   2.434   0.913   3.344  4.9071 -2.9373 -0.6925
  275EMI    H2" 5224   2.309   0.886   3.471  0.1100 -4.1524  1.6921
  275EMI    H2" 5225   2.265   0.973   3.322  2.3584 -0.1585 -0.8891
  276EMI     N1 5226   5.521   1.401   4.038 -0.6164 -0.3979 -0.1776
  276EMI     C2 5227   5.481   1.374   4.161 -0.1144  0.1722  0.3666
  276EMI     N3 5228   5.350   1.357   4.156  0.3289 -0.2192  0.5754
  276EMI     C4 5229   5.299   1.395   4.037 -0.0536 -0.2720  0.8769
  276EMI     C5 5230   5.411   1.425   3.963 -0.2242  0.8753  0.4878
  276EMI     H2 5231   5.536   1.360   4.255 -5.3426  0.7752  0.0456
  276EMI     H4 5232   5.196   1.398   4.002 -1.3095  0.3883  0.2211
  276EMI     H5 5233   5.412   1.458   3.865  2.9387 -0.4989  1.3978
  276EMI    C1' 5234   5.256   1.307   4.252  0.6186  0.0480  0.2833
  276EMI    H1' 5235   5.260   1.365   4.350  1.0350 -1.3217 -0.0114
  276EMI    H1' 5236   5.162   1.303   4.202  0.3831  0.8399  2.0322
  276EMI    H1' 5237   5.288   1.212   4.287 -1.3755 -0.4561 -0.3573
  276EMI    C1" 5238   5.654   1.425   3.988 -1.1349  0.2509  0.5257
  276EMI    H1" 5239   5.699   1.502   4.055  2.7153 -1.4314 -0.6315
  276EMI    H1" 5240   5.653   1.473   3.887 -1.5553 -0.0972 -1.0426
  276EMI    C2" 5241   5.747   1.308   3.989  1.1397  0.2784 -0.0759
  276EMI    H2" 5242   5.844   1.334   3.938  1.0720  0.2885  2.5992
  276EMI    H2" 5243   5.777   1.281   4.085  0.4669 -0.0420 -1.5816
  276EMI    H2" 5244   5.702   1.224   3.934 -0.8943 -0.3384  2.4577
  277EMI     N1 5245   2.569   1.825   6.240  0.5193  0.5217  0.1353
  277EMI     C2 5246   2.635   1.941   6.215  0.5589 -0.0019  0.3341
  277EMI     N3 5247   2.755   1.932   6.271 -0.1297 -0.4782 -0.1118
  277EMI     C4 5248   2.764   1.810   6.338 -0.2542  0.3645 -0.3452
  277EMI     C5 5249   2.647   1.748   6.324 -0.1633 -0.1851  0.3063
  277EMI     H2 5250   2.589   2.030   6.174 -0.3733 -0.9371  0.9012
  277EMI     H4 5251   2.848   1.771   6.384  1.1792  0.0752 -0.1622
  277EMI     H5 5252   2.622   1.648   6.372 -2.0326 -2.6201 -0.8863
  277EMI    C1' 5253   2.858   2.035   6.289 -0.1482  0.2333 -0.5222
  277EMI    H1' 5254   2.836   2.077   6.388 -0.0961  1.2440  1.5532
  277EMI    H1' 5255   2.955   1.995   6.291 -1.2728  1.2140  0.8375
  277EMI    H1' 5256   2.848   2.089   6.194 -1.8818 -0.9328 -4.1084
  277EMI    C1" 5257   2.429   1.786   6.215 -0.1125 -0.7590 -0.4290
  277EMI    H1" 5258   2.366   1.858   6.272 -2.0473  1.0979  0.7914
  277EMI    H1" 5259   2.419   1.680   6.248  1.2662  0.2685  0.7562
  277EMI    C2" 5260   2.394   1.768   6.068 -0.6188 -0.3438 -0.6570
  277EMI    H2" 5261   2.289   1.745   6.042 -0.8675  1.5319  0.5922
  277EMI    H2" 5262   2.419   1.864   6.020 -0.5456 -1.4170 -2.4081
  277EMI    H2" 5263   2.469   1.703   6.026  0.9809 -0.0640  0.8916
  278EMI     N1 5264   5.362   4.921   2.273  0.0294  0.4937 -0.1621
  278EMI     C2 5265   5.464   5.007   2.290 -0.4986 -0.4405 -0.9896
  278EMI     N3 5266   5.572   4.943   2.332  0.0751  1.1510  0.0824
  278EMI     C4 5267   5.538   4.807   2.340  0.4972 -0.4624  0.3121
  278EMI     C5 5268   5.410   4.795   2.302 -0.4029  0.0006 -0.9592
  278EMI     H2 5269   5.467   5.116   2.261 -2.3969  2.0245  0.0494
  278EMI     H4 5270   5.607   4.729   2.357 -3.1272  0.0488 -0.4294
  278EMI     H5 5271   5.359   4.696   2.309 -2.9869  0.8987 -2.7846
  278EMI    C1' 5272   5.709   5.002   2.368  0.6463 -0.0278 -0.2821
  278EMI    H1' 5273   5.729   5.077   2.298  0.1461 -3.2908  0.7496
  278EMI    H1' 5274   5.703   5.040   2.473 -0.4460  0.7071  0.3533
  278EMI    H1' 5275   5.787   4.919   2.372  0.4601  0.5921  3.5200
  278EMI    C1" 5276   5.224   4.940   2.221  0.2542 -0.2095 -0.3999
  278EMI    H1" 5277   5.185   4.844   2.191  0.5531  0.0115 -0.9097
  278EMI    H1" 5278   5.218   5.001   2.126 -2.0003  0.1970  0.7507
  278EMI    C2" 5279   5.131   4.999   2.323  0.9919  0.1520  0.0598
  278EMI    H2" 5280   5.028   5.006   2.287 -1.3145 -0.3029 -2.7076
  278EMI    H2" 5281   5.142   4.928   2.405  1.2932  3.2675  1.5680
  278EMI    H2" 5282   5.171   5.095   2.346 -2.2882  2.8750  0.3651
  279EMI     N1 5283   4.762   4.715   2.029 -0.0748 -0.1825 -0.0239
  279EMI     C2 5284   4.872   4.696   1.956  1.2709 -0.7849  0.3877
  279EMI     N3 5285   4.863   4.579   1.898 -0.1057 -0.6970 -0.4789
  279EMI     C4 5286   4.747   4.515   1.948 -0.4620  0.1360 -0.0891
  279EMI     C5 5287   4.700   4.600   2.039  1.1852  0.5701 -0.2663
  279EMI     H2 5288   4.946   4.772   1.938 -0.6204  1.4250  1.4183
  279EMI     H4 5289   4.720   4.416   1.917  1.4505  1.0879 -0.5439
  279EMI     H5 5290   4.612   4.579   2.108  0.3474  1.6876 -1.1752
  279EMI    C1' 5291   4.959   4.516   1.807  0.0793 -0.4608  0.0781
  279EMI    H1' 5292   5.056   4.510   1.864  1.9659  1.7187  0.6855
  279EMI    H1' 5293   4.920   4.417   1.785 -2.1533  0.4601  2.0265
  279EMI    H1' 5294   4.959   4.575   1.719 -1.2615 -1.6387 -1.7151
  279EMI    C1" 5295   4.721   4.835   2.109  0.3209  0.3063  0.0069
  279EMI    H1" 5296   4.745   4.809   2.213  1.1950 -0.6140  0.9073
  279EMI    H1" 5297   4.609   4.852   2.101 -0.9250 -0.8256  0.1196
  279EMI    C2" 5298   4.780   4.958   2.063 -0.7962  0.1979 -0.8327
  279EMI    H2" 5299   4.750   4.987   1.964  0.5167 -0.0549  0.8376
  279EMI    H2" 5300   4.728   5.031   2.120  2.1237 -2.9394  0.1551
  279EMI    H2" 5301   4.887   4.978   2.088  0.4695  4.0589  1.5448
  280EMI     N1 5302   0.806   1.515   3.850 -0.0408  0.3417 -0.4088
  280EMI     C2 5303   0.892   1.432   3.786  0.5973 -0.2899 -0.1444
  280EMI     N3 5304   0.878   1.436   3.648 -0.4011 -0.1583 -0.4379
  280EMI     C4 5305   0.792   1.547   3.631 -1.0060  0.1117  0.2810
  280EMI     C5 5306   0.751   1.590   3.753 -0.4426  0.3703  0.1777
  280EMI     H2 5307   0.948   1.351   3.836  0.5059 -0.8437  0.3755
  280EMI     H4 5308   0.772   1.598   3.536  0.1200 -1.6196 -3.0532
  280EMI     H5 5309   0.693   1.674   3.771  1.8264 -2.1747 -0.3314
  280EMI    C1' 5310   0.951   1.364   3.539 -0.3505  0.0582 -0.5663
  280EMI    H1' 5311   0.914   1.398   3.439  1.9193 -0.0596  2.8499
  280EMI    H1' 5312   1.056   1.392   3.546 -1.4335 -2.3166  1.1444
  280EMI    H1' 5313   0.930   1.256   3.554 -1.1071  1.1399  2.3429
  280EMI    C1" 5314   0.773   1.529   3.994 -0.8093 -0.0585  0.4198
  280EMI    H1" 5315   0.749   1.429   4.032  3.4614 -2.2786  0.4377
  280EMI    H1" 5316   0.686   1.588   4.005  0.5473  0.0951 -0.6198
  280EMI    C2" 5317   0.892   1.584   4.083 -0.6966  0.3372 -0.1566
  280EMI    H2" 5318   0.858   1.570   4.184 -1.7390  0.2934 -1.8756
  280EMI    H2" 5319   0.991   1.531   4.073  1.5523 -0.4903 -0.7153
  280EMI    H2" 5320   0.913   1.694   4.070  0.6220  2.1953 -3.5604
  281EMI     N1 5321   5.892   4.448   4.469 -0.0858 -0.7184 -0.0841
  281EMI     C2 5322   6.013   4.507   4.463 -0.0101 -0.3873  0.0245
  281EMI     N3 5323   6.001   4.615   4.378 -0.1287 -0.3729  0.2354
  281EMI     C4 5324   5.875   4.629   4.328  0.7829 -0.7499 -0.0654
  281EMI     C5 5325   5.805   4.527   4.388 -0.7652  0.3904  0.1387
  281EMI     H2 5326   6.092   4.474   4.522 -2.5725  0.2024  1.3259
  281EMI     H4 5327   5.834   4.698   4.259 -0.4826  3.3630 -0.4173
  281EMI     H5 5328   5.702   4.511   4.380 -0.1307  0.9329 -0.3661
  281EMI    C1' 5329   6.108   4.709   4.337 -0.0569 -0.0730  0.9483
  281EMI    H1' 5330   6.193   4.704   4.402 -1.1097  2.1554 -1.5597
  281EMI    H1' 5331   6.150   4.672   4.237 -0.5144 -0.2279 -0.8005
  281EMI    H1' 5332   6.065   4.808   4.326  1.4272 -0.4641 -1.3182
  281EMI    C1" 5333   5.846   4.330   4.543 -0.4642 -0.6508  0.5092
  281EMI    H1" 5334   5.772   4.354   4.610  0.9643  1.1976 -1.1904
  281EMI    H1" 5335   5.930   4.274   4.583  0.7683  0.6468 -0.9959
  281EMI    C2" 5336   5.773   4.230   4.447 -0.2788 -1.1058 -0.4539
  281EMI    H2" 5337   5.854   4.177   4.393  1.8636 -0.3190  2.1360
  281EMI    H2" 5338   5.731   4.152   4.511  0.7583 -2.9173  0.2213
  281EMI    H2" 5339   5.706   4.284   4.386  1.1712 -2.0621  0.5109
  282EMI     N1 5340   4.623   4.718   0.461  0.2818 -0.0150 -0.3888
  282EMI     C2 5341   4.530   4.704   0.365 -0.8498 -0.9634 -0.0199
  282EMI     N3 5342   4.582   4.743   0.245  0.1638 -0.3388 -0.9852
  282EMI     C4 5343   4.707   4.795   0.268 -0.8007 -0.1143  0.3735
  282EMI     C5 5344   4.732   4.774   0.393  0.3348  0.1402  0.3900
  282EMI     H2 5345   4.433   4.670   0.380 -1.8697  0.1936  1.8538
  282EMI     H4 5346   4.769   4.848   0.191 -1.4487 -0.7141 -1.7236
  282EMI     H5 5347   4.822   4.810   0.440  1.0094 -0.5157  0.6554
  282EMI    C1' 5348   4.519   4.754   0.116  0.1364 -0.0816 -0.1741
  282EMI    H1' 5349   4.593   4.714   0.049  2.8946  0.3783 -2.4302
  282EMI    H1' 5350   4.426   4.695   0.111  0.4181 -1.1772  1.5350
  282EMI    H1' 5351   4.486   4.853   0.104 -1.1679 -0.7598  1.6092
  282EMI    C1" 5352   4.615   4.702   0.612  0.1256 -0.6936  0.0000
  282EMI    H1" 5353   4.513   4.660   0.621 -3.3904  4.0273 -0.5473
  282EMI    H1" 5354   4.621   4.796   0.661 -1.4769 -1.6591  0.8927
  282EMI    C2" 5355   4.718   4.611   0.662 -0.6224  0.1062  0.3016
  282EMI    H2" 5356   4.815   4.647   0.623 -0.6024  1.3198  0.6942
  282EMI    H2" 5357   4.730   4.613   0.766  0.2420  1.7498 -0.1729
  282EMI    H2" 5358   4.703   4.515   0.623 -2.4231  0.4849  2.8098
  283EMI     N1 5359   6.084   5.072   5.087 -0.2957  0.2085  0.1619
  283EMI     C2 5360   6.204   5.076   5.029 -0.0053 -0.0071 -0.8456
  283EMI     N3 5361   6.207   5.152   4.921 -0.2224 -0.2018  0.1724
  283EMI     C4 5362   6.077   5.208   4.912 -0.1397 -0.2035  0.1327
  283EMI     C5 5363   6.005   5.161   5.020  0.1020 -0.3422  0.2238
  283EMI     H2 5364   6.295   5.038   5.073 -0.1536  0.1626  2.7575
  283EMI     H4 5365   6.055   5.276   4.830  0.8811  2.7404 -0.4528
  283EMI     H5 5366   5.901   5.182   5.041  0.6249 -0.2837  0.4144
  283EMI    C1' 5367   6.306   5.171   4.813 -0.0009  0.0352  1.0695
  283EMI    H1' 5368   6.382   5.093   4.828 -0.4305 -0.3350  0.4286
  283EMI    H1' 5369   6.256   5.158   4.715  0.0405 -0.8857  0.5660
  283EMI    H1' 5370   6.353   5.273   4.809  0.2536 -0.2059 -0.8826
  283EMI    C1" 5371   6.051   5.011   5.220 -0.0464  0.2131  0.7906
  283EMI    H1" 5372   6.044   4.905   5.214 -0.1139  1.6349  1.5166
  283EMI    H1" 5373   5.952   5.045   5.244 -0.2130 -0.1700  2.5022
  283EMI    C2" 5374   6.138   5.048   5.336 -0.3551 -0.1088 -0.5986
  283EMI    H2" 5375   6.106   5.133   5.401 -1.4884 -1.6101  1.3689
  283EMI    H2" 5376   6.156   4.959   5.397 -0.5593  2.7855 -0.0412
  283EMI    H2" 5377   6.229   5.080   5.296 -1.7533 -3.6278 -0.9781
  284EMI     N1 5378   4.783   4.679   2.507 -0.2302 -0.3703 -0.1183
  284EMI     C2 5379   4.842   4.570   2.461 -0.8389 -0.3512 -0.2655
  284EMI     N3 5380   4.761   4.497   2.378  0.0838 -0.1823 -0.2387
  284EMI     C4 5381   4.643   4.560   2.379 -0.3154 -0.5213  0.0313
  284EMI     C5 5382   4.657   4.672   2.452  0.3757 -0.2148  0.1308
  284EMI     H2 5383   4.948   4.537   2.475  2.4537 -0.1209 -2.2144
  284EMI     H4 5384   4.554   4.529   2.331 -2.0826  0.5892 -2.1945
  284EMI     H5 5385   4.575   4.743   2.471 -2.5943  0.0555  3.6130
  284EMI    C1' 5386   4.793   4.378   2.294  1.3129 -0.4111 -0.8118
  284EMI    H1' 5387   4.707   4.326   2.252  3.7285 -0.6947 -3.7045
  284EMI    H1' 5388   4.866   4.410   2.220 -1.5448 -1.2993 -1.1212
  284EMI    H1' 5389   4.852   4.308   2.358  0.2028  1.1203  1.3170
  284EMI    C1" 5390   4.834   4.780   2.605  0.1765 -0.0239 -0.4650
  284EMI    H1" 5391   4.763   4.863   2.602  0.1184 -0.9998  1.2774
  284EMI    H1" 5392   4.936   4.820   2.589 -0.3263  2.7163 -0.2584
  284EMI    C2" 5393   4.816   4.723   2.742  0.2198  0.1350  0.3022
  284EMI    H2" 5394   4.870   4.635   2.750 -1.2176  1.5067 -2.2064
  284EMI    H2" 5395   4.858   4.804   2.812 -1.1973 -1.3163 -0.9255
  284EMI    H2" 5396   4.712   4.707   2.758  1.8546 -0.3516 -0.4197
  285EMI     N1 5397   0.758   3.042   2.554  0.5229  0.2619 -0.3400
  285EMI     C2 5398   0.667   3.073   2.455  0.3607  0.3628 -0.0702
  285EMI     N3 5399   0.676   3.202   2.431  0.4130 -0.1468  0.6197
  285EMI     C4 5400   0.783   3.251   2.500  0.0088 -0.1343  0.2078
  285EMI     C5 5401   0.832   3.157   2.574  0.2997  0.3307  0.3690
  285EMI     H2 5402   0.622   3.003   2.385 -0.2146 -1.1662 -3.7084
  285EMI     H4 5403   0.820   3.353   2.498 -1.5257 -2.1853 -0.0359
  285EMI     H5 5404   0.912   3.169   2.644 -0.6753 -0.7265 -2.2864
  285EMI    C1' 5405   0.590   3.290   2.357 -0.0684 -0.1653  0.3391
  285EMI    H1' 5406   0.512   3.233   2.320 -3.5357  0.9520  0.3342
  285EMI    H1' 5407   0.550   3.361   2.425 -0.7901  1.0539  2.6868
  285EMI    H1' 5408   0.652   3.344   2.289 -0.0460 -2.8140  1.4963
  285EMI    C1" 5409   0.802   2.909   2.592 -0.1362 -0.6970 -0.1034
  285EMI    H1" 5410   0.714   2.857   2.601  0.7581 -0.3761 -0.8971
  285EMI    H1" 5411   0.860   2.895   2.684  1.0528 -1.2078  0.2710
  285EMI    C2" 5412   0.887   2.844   2.471  0.0737  0.0276  0.0517
  285EMI    H2" 5413   0.896   2.734   2.475  2.5112 -0.2904  1.3449
  285EMI    H2" 5414   0.829   2.857   2.382  1.3756  0.6578 -0.1072
  285EMI    H2" 5415   0.989   2.877   2.473 -0.3746 -0.7762 -1.0640
  286EMI     N1 5416   4.133   0.783   2.030  0.2822 -0.0239  0.5693
  286EMI     C2 5417   4.103   0.815   2.164 -0.2688 -0.0450 -0.1845
  286EMI     N3 5418   4.081   0.949   2.172  0.2045 -0.4845 -0.0131
  286EMI     C4 5419   4.098   1.000   2.041 -0.6807 -0.5648 -0.5925
  286EMI     C5 5420   4.127   0.902   1.958  0.0439  0.0423 -0.4176
  286EMI     H2 5421   4.084   0.751   2.253  1.5167  0.4685 -1.9800
  286EMI     H4 5422   4.072   1.103   2.016 -1.5210 -0.9339  2.2483
  286EMI     H5 5423   4.125   0.921   1.849 -2.8639 -0.4748 -0.1708
  286EMI    C1' 5424   4.051   1.039   2.286  0.6972 -0.4060  0.8760
  286EMI    H1' 5425   3.973   1.105   2.253 -1.4631 -0.9765  1.3219
  286EMI    H1' 5426   4.011   0.973   2.370 -1.9191 -1.3876 -0.5719
  286EMI    H1' 5427   4.140   1.100   2.312  1.5776  3.3872 -1.8598
  286EMI    C1" 5428   4.147   0.642   1.967  0.6972 -0.1707  0.0425
  286EMI    H1" 5429   4.151   0.646   1.860  0.2866 -0.3119  0.1222
  286EMI    H1" 5430   4.054   0.581   1.973  2.2353  0.0006 -1.1934
  286EMI    C2" 5431   4.260   0.562   2.035 -0.1009  0.1856  0.5994
  286EMI    H2" 5432   4.359   0.594   2.016 -1.7965  2.8300  0.3421
  286EMI    H2" 5433   4.239   0.549   2.142  0.3210 -0.2204  2.8997
  286EMI    H2" 5434   4.258   0.452   2.001  0.3250  2.4656  1.6964
  287EMI     N1 5435   1.031   1.731   2.238 -0.5431 -0.6688  0.1998
  287EMI     C2 5436   0.950   1.711   2.349 -0.3670 -0.3911  0.0663
  287EMI     N3 5437   0.869   1.816   2.376 -1.0404 -0.0087  0.2507
  287EMI     C4 5438   0.906   1.912   2.277 -0.1386  0.3118  0.4768
  287EMI     C5 5439   1.002   1.855   2.195 -0.0277  0.6124  0.6437
  287EMI     H2 5440   0.956   1.621   2.401 -0.2327 -0.4618 -1.1903
  287EMI     H4 5441   0.857   2.013   2.267 -0.1744  0.9162 -1.6166
  287EMI     H5 5442   1.046   1.909   2.112 -0.5321  0.9992 -0.0627
  287EMI    C1' 5443   0.772   1.838   2.480 -0.0147  0.0083 -0.1438
  287EMI    H1' 5444   0.677   1.885   2.448  0.0624  2.1200 -2.9324
  287EMI    H1' 5445   0.752   1.745   2.535 -1.1269 -0.7354  0.5517
  287EMI    H1' 5446   0.810   1.901   2.559  1.0166 -2.5977  0.8498
  287EMI    C1" 5447   1.117   1.638   2.160  0.1682 -0.0526 -0.0512
  287EMI    H1" 5448   1.063   1.590   2.080 -0.3446 -1.2354 -1.8195
  287EMI    H1" 5449   1.150   1.552   2.222  2.0723 -2.8892 -5.5558
  287EMI    C2" 5450   1.239   1.713   2.100 -0.1319 -0.8061  0.1617
  287EMI    H2" 5451   1.310   1.631   2.076  1.2625 -2.6442  1.5291
  287EMI    H2" 5452   1.207   1.787   2.024 -1.2937 -0.0531 -0.9819
  287EMI    H2" 5453   1.284   1.766   2.184  1.2926  1.1053 -0.2769
  288EMI     N1 5454   1.612   6.210   0.067 -0.0472  1.0253 -0.1840
  288EMI     C2 5455   1.732   6.214   0.132  0.1372  0.0549  0.4486
  288EMI     N3 5456   1.725   6.245   0.263 -0.6756 -0.4142 -0.3218
  288EMI     C4 5457   1.589   6.257   0.285 -0.4239  0.0632 -0.2321
  288EMI     C5 5458   1.524   6.239   0.170  0.1082  0.2892  0.3254
  288EMI     H2 5459   1.823   6.184   0.084 -1.0288 -0.8898 -0.0757
  288EMI     H4 5460   1.535   6.289   0.372  0.8181 -0.4912 -0.7890
  288EMI     H5 5461   1.419   6.240   0.156  0.6661  0.5124 -1.5030
  288EMI    C1' 5462   1.831   6.247   0.369 -1.0235  0.0584  0.1697
  288EMI    H1' 5463   1.826   6.354   0.395 -2.9215 -0.1678  1.7653
  288EMI    H1' 5464   1.820   6.177   0.451  1.7872  0.6845 -2.9055
  288EMI    H1' 5465   1.926   6.222   0.317  1.1931  0.8926 -1.3319
  288EMI    C1" 5466   1.565   6.157  -0.063 -0.5757  0.2115 -0.4197
  288EMI    H1" 5467   1.637   6.193  -0.133 -0.4764 -4.7231  0.7178
  288EMI    H1" 5468   1.474   6.199  -0.092 -1.2361 -0.1965 -2.2282
  288EMI    C2" 5469   1.545   6.002  -0.062  0.0234 -0.5752  0.1787
  288EMI    H2" 5470   1.618   5.945  -0.009 -1.8486 -0.5022 -2.9873
  288EMI    H2" 5471   1.450   5.980  -0.023  0.4326 -1.8021 -2.2860
  288EMI    H2" 5472   1.547   5.968  -0.162 -3.3316  0.9915  0.0136
  289EMI     N1 5473   1.455   1.448   1.497  0.0347 -0.0371 -0.0566
  289EMI     C2 5474   1.482   1.337   1.428 -0.1810  0.3631 -0.0893
  289EMI     N3 5475   1.598   1.285   1.469 -0.4285 -0.0114  0.0375
  289EMI     C4 5476   1.643   1.366   1.568  0.4743  0.2488 -0.2439
  289EMI     C5 5477   1.554   1.464   1.590 -0.1508  0.3391 -0.4920
  289EMI     H2 5478   1.421   1.294   1.352  2.1415 -3.4364 -0.7750
  289EMI     H4 5479   1.740   1.363   1.622  1.7873  4.8399 -0.1263
  289EMI     H5 5480   1.546   1.532   1.678  1.9273  0.3411  0.7545
  289EMI    C1' 5481   1.688   1.176   1.418  0.4328 -0.8254 -0.2956
  289EMI    H1' 5482   1.673   1.094   1.478 -1.0776 -0.9019  3.3226
  289EMI    H1' 5483   1.660   1.144   1.315  3.6118  0.1052 -1.0167
  289EMI    H1' 5484   1.785   1.212   1.434 -1.0727 -0.6360 -1.9689
  289EMI    C1" 5485   1.330   1.532   1.489  0.0189  1.2109  0.3234
  289EMI    H1" 5486   1.243   1.469   1.488 -1.3298  0.7593  0.2268
  289EMI    H1" 5487   1.331   1.593   1.395  0.2031  1.2684 -2.9613
  289EMI    C2" 5488   1.316   1.624   1.604  0.3890  0.9066  0.3867
  289EMI    H2" 5489   1.333   1.565   1.692  1.2251  0.4582 -2.0128
  289EMI    H2" 5490   1.387   1.699   1.604 -1.8859  2.0035 -2.6648
  289EMI    H2" 5491   1.215   1.659   1.593  1.2479 -0.7085  1.9653
  290EMI     N1 5492   4.196   5.064   3.233 -0.0900 -1.2532  0.6335
  290EMI     C2 5493   4.292   5.117   3.313  0.4333  0.4279 -0.2459
  290EMI     N3 5494   4.330   5.242   3.264  0.6110 -0.0539 -0.5671
  290EMI     C4 5495   4.262   5.258   3.144  0.7627  0.2288 -0.1635
  290EMI     C5 5496   4.181   5.152   3.127  0.6971  0.5155 -0.2807
  290EMI     H2 5497   4.331   5.069   3.399  1.5284  0.3453  1.1444
  290EMI     H4 5498   4.268   5.346   3.085  0.4898  1.7422  0.7711
  290EMI     H5 5499   4.120   5.135   3.037  2.0913 -0.9001 -2.1847
  290EMI    C1' 5500   4.437   5.340   3.316 -0.7226  0.7808  0.0094
  290EMI    H1' 5501   4.377   5.419   3.364  2.2103 -1.3453  1.1786
  290EMI    H1' 5502   4.499   5.302   3.395  0.3246 -1.0601  0.3648
  290EMI    H1' 5503   4.508   5.376   3.241  1.6334  1.3704  1.2115
  290EMI    C1" 5504   4.144   4.929   3.227  0.2473  0.8441  0.2460
  290EMI    H1" 5505   4.051   4.920   3.169  0.9774 -1.2496  0.8444
  290EMI    H1" 5506   4.134   4.900   3.327  1.9999 -3.2929 -0.1936
  290EMI    C2" 5507   4.238   4.836   3.150 -0.3036 -0.5190  0.7344
  290EMI    H2" 5508   4.246   4.872   3.045  1.6848  3.2203 -0.7796
  290EMI    H2" 5509   4.334   4.851   3.189 -0.6129 -1.6190  0.1534
  290EMI    H2" 5510   4.210   4.735   3.149  0.1271  1.3295 -2.1700
  291EMI     N1 5511   0.251   4.826   1.056  0.1474  0.2538 -0.8092
  291EMI     C2 5512   0.283   4.921   0.961 -1.1215 -0.8238 -0.3130
  291EMI     N3 5513   0.298   4.853   0.841  0.6479 -0.3913 -0.2900
  291EMI     C4 5514   0.273   4.724   0.861  0.3521 -0.1249  0.1157
  291EMI     C5 5515   0.245   4.705   0.992 -1.1579 -0.3245  0.3472
  291EMI     H2 5516   0.283   5.030   0.977 -2.5429  0.9620 -0.6994
  291EMI     H4 5517   0.266   4.644   0.788  3.0769 -1.5821 -0.2675
  291EMI     H5 5518   0.220   4.614   1.043  1.3554  1.1844 -1.7653
  291EMI    C1' 5519   0.307   4.918   0.704  0.0873  0.3537 -0.1425
  291EMI    H1' 5520   0.398   4.969   0.690  0.2843  0.5168 -0.6381
  291EMI    H1' 5521   0.295   4.835   0.636  4.0384  0.7192 -0.8799
  291EMI    H1' 5522   0.216   4.981   0.687 -0.0253  0.7474  2.8637
  291EMI    C1" 5523   0.203   4.850   1.197 -0.1370 -0.6781 -0.1147
  291EMI    H1" 5524   0.145   4.761   1.229 -2.1732 -2.1140 -2.2776
  291EMI    H1" 5525   0.138   4.937   1.205 -0.9296 -0.1498  1.3829
  291EMI    C2" 5526   0.324   4.872   1.289 -0.2873  0.3218 -0.2283
  291EMI    H2" 5527   0.387   4.787   1.275  0.2683  1.2081 -1.7102
  291EMI    H2" 5528   0.373   4.969   1.273  1.0774  1.2228  0.8507
  291EMI    H2" 5529   0.283   4.871   1.395  1.2079  2.3411  1.4806
  292EMI     N1 5530   0.555   0.986   0.315 -0.2279  0.1198  0.1223
  292EMI     C2 5531   0.514   1.021   0.443 -0.4744  0.3074 -0.2824
  292EMI     N3 5532   0.383   0.995   0.458  0.1842 -0.4910 -0.3506
  292EMI     C4 5533   0.344   0.934   0.343 -0.5750 -0.0197 -0.1086
  292EMI     C5 5534   0.445   0.936   0.254  0.8452 -0.5635 -0.0516
  292EMI     H2 5535   0.581   1.063   0.519  0.2486  2.7967  1.3265
  292EMI     H4 5536   0.247   0.892   0.318  0.7107  2.5438  0.7551
  292EMI     H5 5537   0.425   0.893   0.155 -2.4984  0.6445 -0.7178
  292EMI    C1' 5538   0.298   1.006   0.577  0.3286 -0.0730 -0.4572
  292EMI    H1' 5539   0.194   1.036   0.549 -3.1839  3.0151  1.2523
  292EMI    H1' 5540   0.283   0.909   0.621 -0.5093 -0.2053  0.4814
  292EMI    H1' 5541   0.334   1.078   0.645 -1.4864 -0.8696 -4.0570
  292EMI    C1" 5542   0.685   0.978   0.244  0.4729 -0.3346 -0.0893
  292EMI    H1" 5543   0.710   1.085   0.247  2.1714  0.2923 -1.7767
  292EMI    H1" 5544   0.654   0.960   0.141 -0.7973  3.3665  1.3316
  292EMI    C2" 5545   0.792   0.896   0.309  0.1716  0.4757  0.0566
  292EMI    H2" 5546   0.886   0.896   0.251  0.9604 -0.0417 -2.1110
  292EMI    H2" 5547   0.802   0.935   0.411 -1.4777 -1.4281  0.3381
  292EMI    H2" 5548   0.759   0.794   0.310  0.6310  3.2058 -0.4607
  293EMI     N1 5549   0.982   5.502   5.968  0.0067  0.5853 -0.9641
  293EMI     C2 5550   1.032   5.415   6.061  0.0110  0.0786 -0.0257
  293EMI     N3 5551   0.949   5.413   6.170  0.5652 -0.2129  0.0417
  293EMI     C4 5552   0.834   5.477   6.133  0.4407  0.4029 -0.8104
  293EMI     C5 5553   0.859   5.530   6.008 -0.3029  0.6868 -0.2595
  293EMI     H2 5554   1.125   5.366   6.056 -1.9768  1.2406  0.7848
  293EMI     H4 5555   0.737   5.474   6.184  0.0969 -0.2735  0.1513
  293EMI     H5 5556   0.782   5.578   5.955 -0.7771  0.5613  2.1649
  293EMI    C1' 5557   0.962   5.344   6.297  0.1397 -0.0665  0.1963
  293EMI    H1' 5558   0.870   5.346   6.355 -0.6710  1.4345 -0.1472
  293EMI    H1' 5559   0.988   5.234   6.273  2.0989 -1.7571  1.2177
  293EMI    H1' 5560   1.050   5.381   6.349 -1.3397  0.0382 -0.9176
  293EMI    C1" 5561   1.037   5.534   5.836 -0.4327 -0.1407 -0.4479
  293EMI    H1" 5562   1.069   5.638   5.835 -1.0503  0.3389  0.7688
  293EMI    H1" 5563   0.958   5.514   5.754 -2.1236  0.8054 -4.5315
  293EMI    C2" 5564   1.164   5.458   5.805  0.4961 -0.0070  0.6111
  293EMI    H2" 5565   1.213   5.488   5.716  0.7963  2.7274 -3.4756
  293EMI    H2" 5566   1.242   5.476   5.888  0.6790  0.4504  2.1811
  293EMI    H2" 5567   1.147   5.349   5.799  0.1950  0.2350  0.4514
  294EMI     N1 5568   4.544   1.656   6.338 -0.0089 -0.1329 -0.6011
  294EMI     C2 5569   4.631   1.659   6.238  0.3376 -0.0081  0.1929
  294EMI     N3 5570   4.713   1.552   6.243 -0.1109 -0.2166 -0.1261
  294EMI     C4 5571   4.693   1.488   6.356  0.0458 -0.1216 -0.3185
  294EMI     C5 5572   4.583   1.543   6.414  0.3333 -0.2513 -0.0886
  294EMI     H2 5573   4.621   1.732   6.157  3.1558  0.9649  2.4858
  294EMI     H4 5574   4.752   1.399   6.385 -0.0314 -2.1756 -1.9005
  294EMI     H5 5575   4.533   1.497   6.499 -0.2527 -0.1581 -0.5135
  294EMI    C1' 5576   4.809   1.505   6.145 -0.4967 -0.5701  0.1609
  294EMI    H1' 5577   4.841   1.593   6.085  0.0646  2.8579  1.2825
  294EMI    H1' 5578   4.894   1.456   6.198 -0.8943 -1.1467  2.1507
  294EMI    H1' 5579   4.767   1.438   6.072  0.2593 -0.3030  0.4446
  294EMI    C1" 5580   4.439   1.758   6.366 -0.4415 -0.4171 -0.3468
  294EMI    H1" 5581   4.378   1.726   6.453  1.9115  1.5444 -0.7392
  294EMI    H1" 5582   4.375   1.769   6.279 -0.7172 -2.1849 -1.2039
  294EMI    C2" 5583   4.506   1.896   6.398  0.2039 -0.5126  0.1154
  294EMI    H2" 5584   4.431   1.967   6.425  0.4205 -4.1905  2.1145
  294EMI    H2" 5585   4.578   1.881   6.486 -0.6459 -1.4646  2.9254
  294EMI    H2" 5586   4.564   1.933   6.316  0.3915  0.8391  1.4868
  295EMI     N1 5587   3.355   0.035   1.987  0.7588 -0.3027 -0.7237
  295EMI     C2 5588   3.461   0.016   2.059 -0.2577  0.6554 -0.1074
  295EMI     N3 5589   3.446  -0.076   2.153 -0.0775  0.2530 -0.0026
  295EMI     C4 5590   3.314  -0.111   2.150 -1.1311 -0.1386 -0.0644
  295EMI     C5 5591   3.261  -0.049   2.041  0.5735  0.4146  0.2944
  295EMI     H2 5592   3.555   0.056   2.043  0.7001 -0.1826  0.7075
  295EMI     H4 5593   3.272  -0.188   2.209 -0.3168  2.2853  0.3451
  295EMI     H5 5594   3.161  -0.055   1.998 -1.2575  2.2970 -3.2122
  295EMI    C1' 5595   3.545  -0.133   2.248  0.2571 -0.0185 -0.1592
  295EMI    H1' 5596   3.507  -0.220   2.301  1.0984 -0.8329 -0.7413
  295EMI    H1' 5597   3.634  -0.155   2.186 -1.0219  0.4277 -1.6329
  295EMI    H1' 5598   3.558  -0.051   2.320  1.8705 -0.0369  0.7550
  295EMI    C1" 5599   3.345   0.121   1.870 -0.3328 -0.1956 -0.2122
  295EMI    H1" 5600   3.434   0.137   1.819 -1.4993  0.4997 -0.3819
  295EMI    H1" 5601   3.313   0.221   1.912  0.7206 -0.5389  1.2766
  295EMI    C2" 5602   3.232   0.072   1.774  0.1977  0.4477  0.2603
  295EMI    H2" 5603   3.240  -0.038   1.757  2.2028 -1.4483  1.1556
  295EMI    H2" 5604   3.133   0.097   1.814  0.7946 -1.7477  1.2694
  295EMI    H2" 5605   3.231   0.125   1.682 -2.0441  0.8077 -0.2430
  296EMI     N1 5606   0.702   2.016   1.365  0.3454  0.4006 -0.3400
  296EMI     C2 5607   0.702   2.082   1.480 -0.0462  0.5621  0.4366
  296EMI     N3 5608   0.724   2.215   1.463 -0.8732  0.4301 -0.6910
  296EMI     C4 5609   0.771   2.225   1.330 -0.2456  0.6674  0.0711
  296EMI     C5 5610   0.759   2.103   1.273  0.1107  0.5801 -0.5106
  296EMI     H2 5611   0.690   2.034   1.576  1.2060 -0.8238  0.8480
  296EMI     H4 5612   0.810   2.309   1.274  1.4655  0.2965 -2.0378
  296EMI     H5 5613   0.793   2.070   1.178  0.3351 -0.6734  0.3478
  296EMI    C1' 5614   0.744   2.328   1.554 -0.1312 -0.3689 -0.2838
  296EMI    H1' 5615   0.689   2.414   1.505 -0.0707  1.9295  3.4346
  296EMI    H1' 5616   0.713   2.307   1.658 -0.0919 -1.1367 -1.5681
  296EMI    H1' 5617   0.848   2.345   1.570 -0.5873  0.5942 -0.6809
  296EMI    C1" 5618   0.667   1.878   1.335  0.0142  1.0850  0.2511
  296EMI    H1" 5619   0.664   1.835   1.430 -0.1836  0.4267  1.3415
  296EMI    H1" 5620   0.746   1.831   1.276  0.0225  0.4214  0.9957
  296EMI    C2" 5621   0.538   1.852   1.254  0.3430  0.0732  0.2895
  296EMI    H2" 5622   0.507   1.754   1.283  0.6636  0.4428 -3.3873
  296EMI    H2" 5623   0.453   1.924   1.270  1.6642  1.5585 -2.5794
  296EMI    H2" 5624   0.569   1.860   1.148 -1.7864  1.9728  2.1511
  297EMI     N1 5625   2.308   5.713   6.190 -0.0591 -0.3760 -0.5751
  297EMI     C2 5626   2.285   5.844   6.162 -0.3453  0.3528  0.3288
  297EMI     N3 5627   2.400   5.916   6.169 -0.6284 -0.6760  0.0915
  297EMI     C4 5628   2.505   5.829   6.207  0.6345  0.3275 -0.3959
  297EMI     C5 5629   2.445   5.705   6.216 -0.4473  0.0871 -0.0335
  297EMI     H2 5630   2.190   5.884   6.144  1.7386  0.9594  1.1487
  297EMI     H4 5631   2.613   5.857   6.220  1.6140  0.8713  1.2949
  297EMI     H5 5632   2.502   5.617   6.231  1.5157  0.9877  1.6091
  297EMI    C1' 5633   2.424   6.055   6.132 -0.4971 -0.3292 -0.1182
  297EMI    H1' 5634   2.529   6.063   6.138 -2.7482 -2.2362 -0.6975
  297EMI    H1' 5635   2.377   6.093   6.043  0.3600  0.0540  1.2267
  297EMI    H1' 5636   2.388   6.117   6.215  0.3029 -0.6648  0.0724
  297EMI    C1" 5637   2.232   5.590   6.166  0.4701 -0.3872 -0.6691
  297EMI    H1" 5638   2.292   5.508   6.137  0.2126 -0.0120  1.0390
  297EMI    H1" 5639   2.162   5.593   6.082 -2.0508 -0.1561 -2.5028
  297EMI    C2" 5640   2.162   5.550   6.287  0.0735 -0.6461  0.2166
  297EMI    H2" 5641   2.069   5.600   6.289  1.8579  1.0250  0.3817
  297EMI    H2" 5642   2.129   5.448   6.273  0.9755 -1.0244 -1.0295
  297EMI    H2" 5643   2.214   5.556   6.384 -2.7757 -0.0944 -0.3133
  298EMI     N1 5644   3.808   1.877   2.295  0.0670 -0.8085 -0.6559
  298EMI     C2 5645   3.673   1.888   2.292  0.8142  0.1149 -0.1471
  298EMI     N3 5646   3.621   1.846   2.410 -0.0789  0.0427  0.7320
  298EMI     C4 5647   3.728   1.804   2.488  0.9232 -0.2502 -0.2449
  298EMI     C5 5648   3.840   1.825   2.420  0.2168  0.3698  0.0211
  298EMI     H2 5649   3.622   1.929   2.212  1.0945 -0.7374 -2.4261
  298EMI     H4 5650   3.715   1.758   2.581 -0.1300  0.1332 -1.6642
  298EMI     H5 5651   3.940   1.797   2.452  1.5574 -0.9220  1.0566
  298EMI    C1' 5652   3.484   1.812   2.457 -0.8337 -1.0995  0.8768
  298EMI    H1' 5653   3.457   1.870   2.552 -2.0195 -0.8156  1.3283
  298EMI    H1' 5654   3.406   1.841   2.386  1.8047  1.9008 -0.4456
  298EMI    H1' 5655   3.468   1.703   2.478  0.2865 -1.6906 -2.4626
  298EMI    C1" 5656   3.903   1.906   2.187 -0.1990  0.6335  0.3219
  298EMI    H1" 5657   3.992   1.975   2.217 -0.8395  1.5027 -0.6025
  298EMI    H1" 5658   3.863   1.947   2.087 -1.9260 -0.3361 -2.6452
  298EMI    C2" 5659   3.965   1.773   2.143 -0.4951  0.8826  0.5586
  298EMI    H2" 5660   4.049   1.796   2.071  0.3012 -1.3968 -2.8235
  298EMI    H2" 5661   4.001   1.716   2.231  0.3804  0.7350 -1.8885
  298EMI    H2" 5662   3.905   1.715   2.072 -1.3386 -2.5516 -2.0076
  299EMI     N1 5663   5.400   2.532   4.822 -0.2057  0.2113 -0.4272
  299EMI     C2 5664   5.317   2.536   4.716 -0.0759 -0.4498  0.2385
  299EMI     N3 5665   5.367   2.474   4.607  0.1149  0.0972 -0.6056
  299EMI     C4 5666   5.492   2.432   4.647  0.5679  0.2295  0.0244
  299EMI     C5 5667   5.510   2.467   4.777  0.2614  0.6442  0.0370
  299EMI     H2 5668   5.222   2.589   4.709 -1.2068  1.7619  2.1155
  299EMI     H4 5669   5.553   2.368   4.580  0.2491 -1.2818 -1.5341
  299EMI     H5 5670   5.585   2.437   4.847 -2.4450 -0.6807 -0.7611
  299EMI    C1' 5671   5.303   2.437   4.481  0.5241  0.1473 -0.4923
  299EMI    H1' 5672   5.198   2.406   4.487 -0.8358  0.9143  1.5273
  299EMI    H1' 5673   5.311   2.518   4.409  3.2470 -0.9320  0.8570
  299EMI    H1' 5674   5.356   2.351   4.440  2.1751  1.3682 -0.0744
  299EMI    C1" 5675   5.386   2.608   4.951  0.8357  0.2908  0.2129
  299EMI    H1" 5676   5.482   2.603   5.000 -2.5336  0.8550 -0.0215
  299EMI    H1" 5677   5.309   2.559   5.019 -1.0945  2.5238  0.0978
  299EMI    C2" 5678   5.351   2.752   4.942  0.5488  0.1068 -0.1977
  299EMI    H2" 5679   5.265   2.765   4.874  0.8059 -1.2359  2.8806
  299EMI    H2" 5680   5.340   2.806   5.039  4.7113  0.5139  1.3249
  299EMI    H2" 5681   5.443   2.795   4.890 -2.3253 -0.0112  0.8901
  300EMI     N1 5682   0.868   2.431   3.985  0.1800 -0.1566 -0.0895
  300EMI     C2 5683   0.906   2.495   3.880  0.2190  0.3850 -0.2483
  300EMI     N3 5684   0.864   2.622   3.887 -0.0184  0.1848  0.0445
  300EMI     C4 5685   0.796   2.640   4.009 -0.4199 -0.0016  0.2291
  300EMI     C5 5686   0.805   2.518   4.072  0.2209 -0.8406  0.1843
  300EMI     H2 5687   0.953   2.460   3.787  0.8428  2.6952  0.0211
  300EMI     H4 5688   0.756   2.731   4.043 -0.4183 -0.8695 -2.0941
  300EMI     H5 5689   0.781   2.504   4.177 -0.7541  0.1855  0.2024
  300EMI    C1' 5690   0.885   2.739   3.804 -0.2583 -0.2524  0.3928
  300EMI    H1' 5691   0.940   2.816   3.862  2.5491 -1.1601  0.5090
  300EMI    H1' 5692   0.929   2.708   3.713  0.6059 -2.0026  1.2886
  300EMI    H1' 5693   0.794   2.789   3.783 -3.2716  1.9553  0.9298
  300EMI    C1" 5694   0.882   2.285   4.013  0.0478 -0.4137 -0.2663
  300EMI    H1" 5695   0.803   2.266   4.078  1.6771 -0.6265  1.0398
  300EMI    H1" 5696   0.974   2.269   4.071 -0.8309  0.0289  1.3893
  300EMI    C2" 5697   0.853   2.191   3.897  0.1600  0.5935  0.4985
  300EMI    H2" 5698   0.914   2.200   3.815 -1.0366 -1.3863 -2.4174
  300EMI    H2" 5699   0.848   2.084   3.932 -0.3269  1.3494  1.4402
  300EMI    H2" 5700   0.750   2.217   3.868 -0.3451  0.5711 -0.1014
  301EMI     N1 5701   5.073   3.414   5.115  0.6164 -0.8435 -0.6035
  301EMI     C2 5702   5.166   3.317   5.123 -0.3715 -0.0574  1.0173
  301EMI     N3 5703   5.165   3.232   5.021  0.0234 -0.1131 -0.1103
  301EMI     C4 5704   5.048   3.268   4.961  1.1318 -0.2158 -0.2422
  301EMI     C5 5705   4.993   3.377   5.014  0.1668 -0.3567 -0.0098
  301EMI     H2 5706   5.236   3.301   5.202 -0.2364 -0.8681  0.3546
  301EMI     H4 5707   5.030   3.220   4.871 -1.0253 -0.4344 -0.0221
  301EMI     H5 5708   4.902   3.422   4.986  2.0079 -0.9539  0.4105
  301EMI    C1' 5709   5.247   3.117   4.985  0.0143 -0.5499 -0.1361
  301EMI    H1' 5710   5.344   3.158   4.952  0.4800 -0.4257 -0.5579
  301EMI    H1' 5711   5.261   3.055   5.071  1.1332 -1.9367  2.3266
  301EMI    H1' 5712   5.211   3.069   4.895 -0.8715  0.4002  0.1890
  301EMI    C1" 5713   5.046   3.534   5.200 -0.6440 -0.0892  0.5549
  301EMI    H1" 5714   5.007   3.608   5.137  2.0880 -0.6742 -0.7503
  301EMI    H1" 5715   5.140   3.565   5.256  3.5487  0.4795 -0.5191
  301EMI    C2" 5716   4.936   3.498   5.297 -0.1455 -0.2106  0.3231
  301EMI    H2" 5717   4.932   3.386   5.323  2.5260 -0.2932 -0.7355
  301EMI    H2" 5718   4.932   3.565   5.388 -1.0632  0.1190  3.9518
  301EMI    H2" 5719   4.839   3.515   5.257  1.6341 -1.1512  0.6627
  302EMI     N1 5720   4.741   2.446   2.850  0.2258  0.1823 -0.4742
  302EMI     C2 5721   4.759   2.390   2.974  0.9609 -0.2709  0.3385
  302EMI     N3 5722   4.661   2.310   3.004 -0.3921  0.8028 -0.6369
  302EMI     C4 5723   4.565   2.332   2.908  0.1627  0.4989 -0.5461
  302EMI     C5 5724   4.613   2.409   2.809 -0.6274 -0.1123  0.1634
  302EMI     H2 5725   4.842   2.407   3.041 -0.0284 -0.3772 -1.6015
  302EMI     H4 5726   4.467   2.286   2.911  0.1892  1.0890  1.0416
  302EMI     H5 5727   4.559   2.431   2.712  0.5171  1.8013 -2.7330
  302EMI    C1' 5728   4.628   2.250   3.134  0.1447  0.3341  0.6822
  302EMI    H1' 5729   4.602   2.139   3.117 -1.5589  0.1661  0.3394
  302EMI    H1' 5730   4.708   2.263   3.212  1.1915  0.3095  1.8896
  302EMI    H1' 5731   4.537   2.295   3.174  0.1164 -0.5357  1.8010
  302EMI    C1" 5732   4.829   2.531   2.768  0.1896  0.2682 -0.8105
  302EMI    H1" 5733   4.838   2.486   2.669  1.8285 -1.1030  0.5134
  302EMI    H1" 5734   4.935   2.518   2.794  1.7761  1.5579  0.7078
  302EMI    C2" 5735   4.784   2.677   2.778 -0.7514  0.0316 -0.2238
  302EMI    H2" 5736   4.859   2.746   2.731 -1.7524 -1.3894 -1.6525
  302EMI    H2" 5737   4.692   2.681   2.715 -1.0936 -0.9844  2.6899
  302EMI    H2" 5738   4.761   2.715   2.875 -0.8873  0.8115 -1.5494
  303EMI     N1 5739   5.957   4.591   4.814  0.5472 -0.4140  0.7714
  303EMI     C2 5740   5.852   4.530   4.872 -0.1020  1.0664 -0.3582
  303EMI     N3 5741   5.891   4.416   4.922 -0.9310  1.0207 -0.2445
  303EMI     C4 5742   6.025   4.396   4.906  0.2594 -0.6319  0.1381
  303EMI     C5 5743   6.066   4.510   4.842 -0.1513 -0.0651  0.1215
  303EMI     H2 5744   5.751   4.568   4.864  1.5103  1.4199 -0.3290
  303EMI     H4 5745   6.077   4.305   4.935 -3.1861 -3.1124  2.5275
  303EMI     H5 5746   6.172   4.530   4.816  0.8371  1.8605  1.7496
  303EMI    C1' 5747   5.807   4.314   4.991  0.0495  0.6240 -0.1423
  303EMI    H1' 5748   5.709   4.320   4.967 -1.0631 -0.6535  0.6669
  303EMI    H1' 5749   5.834   4.215   4.967 -2.5003 -0.9527 -0.6057
  303EMI    H1' 5750   5.814   4.317   5.100  3.4325  0.3333  0.8232
  303EMI    C1" 5751   5.959   4.724   4.745 -0.5015 -0.0024 -0.0459
  303EMI    H1" 5752   5.855   4.738   4.725 -1.4034 -0.1750  0.4398
  303EMI    H1" 5753   6.023   4.718   4.657 -4.3090 -0.1210  1.3122
  303EMI    C2" 5754   6.010   4.837   4.845 -0.2253 -0.0102 -0.3287
  303EMI    H2" 5755   5.940   4.840   4.928 -2.2827 -1.9695 -0.2201
  303EMI    H2" 5756   6.106   4.803   4.876 -0.0938 -1.0950  2.6131
  303EMI    H2" 5757   6.024   4.933   4.800  2.5117 -0.4395  0.2077
  304EMI     N1 5758   5.061   3.573   3.690  0.0805 -0.2765  0.1564
  304EMI     C2 5759   5.145   3.482   3.635 -0.9510  0.0089  0.1193
  304EMI     N3 5760   5.228   3.547   3.554  0.3901  0.0943  0.4106
  304EMI     C4 5761   5.206   3.679   3.566  0.4371  0.5353 -0.5406
  304EMI     C5 5762   5.101   3.697   3.651 -0.0970 -0.5657  0.5554
  304EMI     H2 5763   5.132   3.369   3.619 -2.6400  0.0771 -0.3825
  304EMI     H4 5764   5.262   3.757   3.524  0.7220 -0.7038  0.4063
  304EMI     H5 5765   5.056   3.797   3.667 -3.9557  2.5512  1.0986
  304EMI    C1' 5766   5.330   3.490   3.463  0.4612  0.3042 -0.0619
  304EMI    H1' 5767   5.317   3.381   3.466  0.5152  4.0665 -4.0319
  304EMI    H1' 5768   5.341   3.525   3.359  2.2731  0.2987 -2.7001
  304EMI    H1' 5769   5.421   3.506   3.513 -0.2920  1.1031 -3.0010
  304EMI    C1" 5770   4.932   3.550   3.759  0.0702 -0.1276 -0.9474
  304EMI    H1" 5771   4.912   3.642   3.813 -0.2837  0.5047 -1.7387
  304EMI    H1" 5772   4.948   3.471   3.843  1.1759 -0.9094  1.1530
  304EMI    C2" 5773   4.821   3.521   3.664 -0.1290  0.0508 -0.0138
  304EMI    H2" 5774   4.728   3.501   3.718  0.0728 -0.3514  1.7718
  304EMI    H2" 5775   4.801   3.603   3.598  1.8429 -0.6313 -1.3217
  304EMI    H2" 5776   4.850   3.429   3.609  1.7907 -0.7607 -0.0297
  305EMI     N1 5777   0.782   2.738   3.238  0.1413  0.2023 -0.0693
  305EMI     C2 5778   0.801   2.623   3.169  0.2496  0.5357 -0.0105
  305EMI     N3 5779   0.822   2.519   3.264  0.5834 -0.4740  0.4867
  305EMI     C4 5780   0.830   2.576   3.389 -0.1499 -0.3493 -0.4042
  305EMI     C5 5781   0.803   2.705   3.372  0.9224 -0.0689  0.8491
  305EMI     H2 5782   0.828   2.602   3.066  0.8506  3.0501  1.3801
  305EMI     H4 5783   0.851   2.531   3.480  0.5312 -1.0970  0.4081
  305EMI     H5 5784   0.801   2.778   3.448 -1.9012 -1.2507 -3.5653
  305EMI    C1' 5785   0.875   2.388   3.240  0.3523 -0.5821 -0.5166
  305EMI    H1' 5786   0.959   2.368   3.300  1.4064  3.0862  1.8734
  305EMI    H1' 5787   0.803   2.310   3.249  0.8981 -2.9625 -2.3317
  305EMI    H1' 5788   0.897   2.368   3.133  0.5976  1.8118 -2.1716
  305EMI    C1" 5789   0.759   2.874   3.192  0.4035  0.6596 -0.0223
  305EMI    H1" 5790   0.737   2.936   3.285  1.8572 -0.0146 -0.2980
  305EMI    H1" 5791   0.671   2.863   3.131 -0.0663  0.2037 -1.1360
  305EMI    C2" 5792   0.891   2.922   3.124 -0.2882 -0.5441  0.3379
  305EMI    H2" 5793   0.907   2.879   3.033  1.4271  1.6319  1.6824
  305EMI    H2" 5794   0.885   3.029   3.100  0.1659 -1.2009 -0.8270
  305EMI    H2" 5795   0.968   2.900   3.192 -0.8259  1.9775 -0.4776
  306EMI     N1 5796   2.973   3.895   5.002  0.5872 -0.0849 -0.4955
  306EMI     C2 5797   2.876   3.946   5.082 -1.0441 -0.4415  0.4021
  306EMI     N3 5798   2.844   4.064   5.032 -0.5003  0.6045  0.2738
  306EMI     C4 5799   2.926   4.097   4.927 -0.2879  0.1315  0.6096
  306EMI     C5 5800   3.010   3.993   4.915 -0.6741  0.2167 -0.6767
  306EMI     H2 5801   2.833   3.912   5.176  2.1539  0.2487  0.1573
  306EMI     H4 5802   2.931   4.189   4.868 -1.5417  2.5497  1.7784
  306EMI     H5 5803   3.088   3.975   4.839 -0.2131  0.6436  0.1684
  306EMI    C1' 5804   2.752   4.170   5.091 -0.0663  0.1931  0.1168
  306EMI    H1' 5805   2.814   4.246   5.129  0.8305 -0.0756  0.8554
  306EMI    H1' 5806   2.696   4.220   5.014  0.2410 -2.0971  0.6928
  306EMI    H1' 5807   2.677   4.135   5.164 -0.1095  1.3235  1.8357
  306EMI    C1" 5808   3.040   3.767   5.008 -0.4844 -0.5260  0.2803
  306EMI    H1" 5809   3.141   3.780   5.051 -0.5019 -1.6263  0.1982
  306EMI    H1" 5810   3.058   3.725   4.911 -2.0429  1.3700  1.0960
  306EMI    C2" 5811   2.968   3.649   5.077 -0.3801 -0.5164  1.1331
  306EMI    H2" 5812   3.031   3.561   5.090 -0.3994  2.1663  0.5346
  306EMI    H2" 5813   2.929   3.675   5.184  1.0487 -2.8378  1.8851
  306EMI    H2" 5814   2.879   3.617   5.014  0.6826 -0.3458  1.5516
  307EMI     N1 5815   5.013   2.363   1.749  0.6322 -0.7301 -0.1216
  307EMI     C2 5816   5.021   2.404   1.876 -0.3917  0.0523 -0.3006
  307EMI     N3 5817   5.002   2.297   1.966 -0.2890 -0.3830 -0.6269
  307EMI     C4 5818   4.990   2.186   1.885 -1.3192 -0.1661  0.2741
  307EMI     C5 5819   4.991   2.229   1.754 -0.3603 -0.0410  0.0321
  307EMI     H2 5820   5.033   2.507   1.898  1.3064  0.7476 -1.5215
  307EMI     H4 5821   4.964   2.098   1.927 -0.0376  1.0471  1.1037
  307EMI     H5 5822   4.977   2.167   1.664 -1.5295 -0.8681  0.6186
  307EMI    C1' 5823   5.012   2.305   2.111 -0.4578 -0.2923 -0.6554
  307EMI    H1' 5824   4.964   2.396   2.160  0.4467  0.6428 -0.6158
  307EMI    H1' 5825   4.985   2.212   2.160 -0.0998  0.1654  0.8303
  307EMI    H1' 5826   5.124   2.310   2.126  2.0859  0.4752 -1.5071
  307EMI    C1" 5827   5.014   2.439   1.621  0.0780 -0.1739 -0.2009
  307EMI    H1" 5828   5.052   2.377   1.545 -1.1261  0.5219  2.5526
  307EMI    H1" 5829   5.074   2.525   1.632 -1.5775 -0.3834  0.1521
  307EMI    C2" 5830   4.869   2.480   1.587 -0.3690  0.3277  0.1853
  307EMI    H2" 5831   4.862   2.532   1.486  0.5430 -1.2353 -1.7193
  307EMI    H2" 5832   4.801   2.398   1.583 -0.7975  1.9002  2.6892
  307EMI    H2" 5833   4.833   2.552   1.662 -1.4221 -0.4995 -2.1358
  308EMI     N1 5834   4.485   1.077   1.520 -0.0937 -0.4094  0.0858
  308EMI     C2 5835   4.601   1.112   1.458 -0.5088  0.5876 -0.4954
  308EMI     N3 5836   4.620   1.047   1.345  0.3986 -0.0213 -0.0810
  308EMI     C4 5837   4.513   0.964   1.331 -0.0872 -0.0674 -0.0519
  308EMI     C5 5838   4.427   0.993   1.429  0.2122  0.3234 -0.1235
  308EMI     H2 5839   4.656   1.197   1.494 -0.5673 -0.4752  1.3676
  308EMI     H4 5840   4.511   0.893   1.249 -0.5506 -2.3293 -0.8570
  308EMI     H5 5841   4.332   0.936   1.447  1.3780 -1.7253 -2.6244
  308EMI    C1' 5842   4.726   1.069   1.244  0.0455  0.0606 -0.2968
  308EMI    H1' 5843   4.820   1.070   1.291 -0.6164 -0.5564  0.9792
  308EMI    H1' 5844   4.731   0.991   1.165 -0.3323 -0.3279 -1.3384
  308EMI    H1' 5845   4.701   1.164   1.196 -0.1244  1.4893  4.1995
  308EMI    C1" 5846   4.423   1.129   1.639 -0.4709  0.0336  0.2205
  308EMI    H1" 5847   4.505   1.162   1.705  2.4359  1.4810  1.0219
  308EMI    H1" 5848   4.350   1.054   1.677 -1.4929  1.3013 -2.5180
  308EMI    C2" 5849   4.336   1.250   1.595 -0.2155  0.0978 -0.1760
  308EMI    H2" 5850   4.234   1.210   1.587  0.0489 -1.2025  0.4031
  308EMI    H2" 5851   4.330   1.314   1.681 -1.0653 -3.4490  0.0721
  308EMI    H2" 5852   4.380   1.308   1.511 -0.6797 -0.1888 -0.4415
  309EMI     N1 5853   0.152   1.174   1.862  0.1617  0.4124 -0.2963
  309EMI     C2 5854   0.214   1.092   1.772  0.0719  0.3324 -0.7190
  309EMI     N3 5855   0.189   1.127   1.650 -0.1268  0.4619  0.5208
  309EMI     C4 5856   0.129   1.248   1.653 -0.0792 -0.7320 -0.1709
  309EMI     C5 5857   0.099   1.274   1.783  0.4824  0.5325 -0.0771
  309EMI     H2 5858   0.280   1.016   1.808 -0.3612 -2.2464 -0.9093
  309EMI     H4 5859   0.099   1.313   1.569 -1.5971 -0.8114  1.4581
  309EMI     H5 5860   0.054   1.362   1.822 -0.6744  1.9638 -0.2240
  309EMI    C1' 5861   0.248   1.071   1.527  0.0633 -0.1268 -0.3186
  309EMI    H1' 5862   0.358   1.059   1.539  0.1676 -2.0012 -0.0554
  309EMI    H1' 5863   0.219   0.971   1.501  0.3007 -0.1647 -1.9874
  309EMI    H1' 5864   0.242   1.138   1.448 -0.3756 -1.7736  0.8310
  309EMI    C1" 5865   0.148   1.173   2.011  0.7822 -0.3498  0.0747
  309EMI    H1" 5866   0.044   1.145   2.037 -0.2645  0.4651  0.7961
  309EMI    H1" 5867   0.170   1.275   2.051 -0.5854  0.4214 -2.3850
  309EMI    C2" 5868   0.231   1.059   2.071  0.0636 -0.0124  0.8341
  309EMI    H2" 5869   0.207   1.062   2.177 -1.5507  1.3337 -0.4440
  309EMI    H2" 5870   0.215   0.972   2.022 -1.6064  3.7973  1.1961
  309EMI    H2" 5871   0.335   1.082   2.064  1.3826 -2.4163 -0.4778
  310EMI     N1 5872   1.538   0.650   6.298  0.2293  0.3466 -0.5265
  310EMI     C2 5873   1.586   0.644   6.173 -0.6416 -0.1759  0.8379
  310EMI     N3 5874   1.499   0.595   6.083  0.1899  0.1976  0.1275
  310EMI     C4 5875   1.386   0.564   6.157  0.6880 -0.9275  0.2378
  310EMI     C5 5876   1.411   0.591   6.286  0.1591 -0.1393  0.5551
  310EMI     H2 5877   1.679   0.678   6.132  0.3431 -2.2997 -0.9521
  310EMI     H4 5878   1.299   0.527   6.114  2.2999  2.3291  0.4222
  310EMI     H5 5879   1.351   0.573   6.371  2.0191  0.1607  1.3939
  310EMI    C1' 5880   1.493   0.595   5.935  0.5350 -0.4590 -0.1038
  310EMI    H1' 5881   1.546   0.511   5.888 -2.6506 -0.6235  0.8225
  310EMI    H1' 5882   1.386   0.589   5.907 -0.5388 -3.6865  0.5388
  310EMI    H1' 5883   1.522   0.688   5.902 -4.7228 -2.0594  0.5441
  310EMI    C1" 5884   1.605   0.684   6.427  0.0489  0.6448  0.1388
  310EMI    H1" 5885   1.705   0.640   6.438 -2.8877  1.5335 -1.4842
  310EMI    H1" 5886   1.545   0.642   6.514 -1.2703 -1.5330  1.0111
  310EMI    C2" 5887   1.609   0.838   6.429  0.4177  0.6484  0.1391
  310EMI    H2" 5888   1.503   0.877   6.419 -0.5705  2.7110  2.2128
  310EMI    H2" 5889   1.654   0.883   6.520  0.3295 -1.6560 -0.8866
  310EMI    H2" 5890   1.650   0.881   6.340 -1.2313  0.2580 -1.9027
  311EMI     N1 5891   2.493   1.321   2.871 -0.2044  0.7866 -0.3876
  311EMI     C2 5892   2.557   1.204   2.881 -0.0838 -0.0961 -0.0928
  311EMI     N3 5893   2.466   1.108   2.883 -0.2906  0.4078 -0.1186
  311EMI     C4 5894   2.341   1.159   2.877  0.4642 -0.2515 -0.3018
  311EMI     C5 5895   2.360   1.290   2.869  0.4072 -0.8746 -0.4805
  311EMI     H2 5896   2.667   1.197   2.893 -1.7746 -0.1976 -0.8416
  311EMI     H4 5897   2.244   1.106   2.877  0.1430 -0.0911 -0.0514
  311EMI     H5 5898   2.278   1.362   2.858  0.1349 -0.1498 -0.6461
  311EMI    C1' 5899   2.489   0.965   2.909  0.0909  0.3112  0.2240
  311EMI    H1' 5900   2.559   0.923   2.833 -1.8315  0.8943 -1.1333
  311EMI    H1' 5901   2.549   0.959   3.001  3.3297 -0.0204  1.4211
  311EMI    H1' 5902   2.405   0.903   2.922 -0.0779 -0.5234 -3.8045
  311EMI    C1" 5903   2.556   1.456   2.859 -0.3691  0.3591  1.0532
  311EMI    H1" 5904   2.634   1.465   2.934 -1.8872  0.4304 -0.7072
  311EMI    H1" 5905   2.475   1.522   2.899 -4.6881  3.1579 -0.3949
  311EMI    C2" 5906   2.614   1.492   2.717  0.0779  0.2233  0.2171
  311EMI    H2" 5907   2.684   1.416   2.668  2.0139 -3.4832  0.1726
  311EMI    H2" 5908   2.532   1.512   2.641  1.5158  0.0037 -3.0127
  311EMI    H2" 5909   2.652   1.599   2.728  0.8296  2.4613 -2.8856
  312EMI     N1 5910   5.127   0.722   4.967 -0.3876  0.4652 -0.4056
  312EMI     C2 5911   5.012   0.660   4.922 -0.2214 -0.4799  0.1715
  312EMI     N3 5912   4.953   0.735   4.826 -0.1029  0.0660  0.3854
  312EMI     C4 5913   5.033   0.843   4.811  0.5011  0.4169  0.1758
  312EMI     C5 5914   5.135   0.840   4.897  0.6825 -0.1463  0.5567
  312EMI     H2 5915   4.982   0.558   4.935  2.2225 -1.3989  1.7269
  312EMI     H4 5916   5.004   0.915   4.732  2.8816  1.7737 -1.3283
  312EMI     H5 5917   5.210   0.918   4.911  0.1446  2.2357  1.6413
  312EMI    C1' 5918   4.851   0.702   4.722  0.2679 -0.0232  0.0604
  312EMI    H1' 5919   4.794   0.786   4.696  1.2554 -3.5829  2.0298
  312EMI    H1' 5920   4.908   0.667   4.635  0.7825  0.3508 -0.6005
  312EMI    H1' 5921   4.782   0.616   4.743  1.3953  3.1744 -1.5260
  312EMI    C1" 5922   5.225   0.674   5.066  0.4051  0.5019  0.2272
  312EMI    H1" 5923   5.252   0.739   5.142 -0.7375  1.7609  1.8441
  312EMI    H1" 5924   5.315   0.646   5.006  0.7578 -1.7533  0.7300
  312EMI    C2" 5925   5.174   0.540   5.126 -0.1379 -0.7251 -0.2104
  312EMI    H2" 5926   5.097   0.564   5.193  0.9285  2.4317 -2.3553
  312EMI    H2" 5927   5.149   0.473   5.043  0.1237 -0.2238 -0.7702
  312EMI    H2" 5928   5.256   0.497   5.187  0.7793 -2.4492  1.0436
  313EMI     N1 5929   0.844   5.781   4.195 -0.0604  0.0047  0.2445
  313EMI     C2 5930   0.879   5.909   4.173 -1.2369  0.1363 -0.5944
  313EMI     N3 5931   1.008   5.930   4.192 -0.0929  0.6641  0.2683
  313EMI     C4 5932   1.058   5.805   4.221  0.1609 -0.3444  0.1522
  313EMI     C5 5933   0.962   5.717   4.227  0.0049 -0.3933  0.1216
  313EMI     H2 5934   0.815   5.988   4.149 -0.6407  2.0305  1.3944
  313EMI     H4 5935   1.163   5.800   4.231  0.3321 -1.0620  0.6167
  313EMI     H5 5936   0.965   5.614   4.253 -0.6052 -0.9163 -0.4123
  313EMI    C1' 5937   1.087   6.047   4.174  0.0692 -0.1534 -0.1027
  313EMI    H1' 5938   1.069   6.117   4.260 -0.4020 -2.0832 -0.4348
  313EMI    H1' 5939   1.189   6.017   4.152 -1.7446  3.0363 -0.8000
  313EMI    H1' 5940   1.052   6.107   4.087  1.4613 -0.4742 -1.7056
  313EMI    C1" 5941   0.700   5.725   4.197 -0.4710 -0.5693 -0.1896
  313EMI    H1" 5942   0.665   5.678   4.104  0.6611 -0.1039 -1.1585
  313EMI    H1" 5943   0.631   5.817   4.206 -2.7512  0.0028 -0.1618
  313EMI    C2" 5944   0.675   5.637   4.311 -0.6597  0.2139 -0.1732
  313EMI    H2" 5945   0.704   5.706   4.396  1.1404 -1.3116 -0.4180
  313EMI    H2" 5946   0.572   5.611   4.320 -0.1847  1.2339  0.1392
  313EMI    H2" 5947   0.733   5.551   4.313 -4.1767 -3.7892  0.0373
  314EMI     N1 5948   3.995   3.053   5.825 -1.0042  0.3277  0.0582
  314EMI     C2 5949   3.983   3.029   5.957 -0.2429 -0.4196  0.0984
  314EMI     N3 5950   4.022   2.900   5.988  0.0946  0.0695 -0.1441
  314EMI     C4 5951   4.072   2.844   5.872 -0.2466  0.2855  0.7299
  314EMI     C5 5952   4.050   2.935   5.771 -0.4078  0.3697  0.0392
  314EMI     H2 5953   3.925   3.088   6.024  2.4014  0.7444  1.7928
  314EMI     H4 5954   4.117   2.749   5.864  0.1453 -2.3017 -0.0456
  314EMI     H5 5955   4.065   2.918   5.667  0.3359  1.3234 -1.0946
  314EMI    C1' 5956   4.001   2.828   6.118  0.2321  0.1519  0.5551
  314EMI    H1' 5957   4.099   2.788   6.148  0.1792  2.0996 -1.5022
  314EMI    H1' 5958   3.971   2.897   6.188  2.1461 -1.9967 -2.8135
  314EMI    H1' 5959   3.927   2.749   6.098 -0.3416  0.1197 -1.2244
  314EMI    C1" 5960   3.968   3.179   5.747 -0.2650  0.2887  0.0850
  314EMI    H1" 5961   4.036   3.180   5.664  1.7159  1.0169  0.4769
  314EMI    H1" 5962   3.987   3.264   5.808 -0.7238 -0.7705  2.3540
  314EMI    C2" 5963   3.821   3.190   5.705 -0.7110 -0.0474 -0.4414
  314EMI    H2" 5964   3.801   3.118   5.629  2.0993  2.9951 -0.8434
  314EMI    H2" 5965   3.750   3.162   5.793  0.8785 -1.3920 -1.5792
  314EMI    H2" 5966   3.787   3.299   5.684  2.1533  0.8042 -0.3885
  315EMI     N1 5967   3.832   5.355   4.302 -0.0923  0.2518 -0.6522
  315EMI     C2 5968   3.968   5.360   4.317 -0.0908 -0.0943  0.2116
  315EMI     N3 5969   4.018   5.265   4.241  0.0422  0.3913  0.2518
  315EMI     C4 5970   3.920   5.199   4.171  0.8059  0.2019 -0.3073
  315EMI     C5 5971   3.796   5.251   4.212 -0.5303  0.9116 -0.1078
  315EMI     H2 5972   4.018   5.434   4.378 -1.2887  0.7768  1.3733
  315EMI     H4 5973   3.933   5.120   4.099 -1.3655  2.0489 -1.9360
  315EMI     H5 5974   3.699   5.218   4.179 -1.0466  0.7067  0.1070
  315EMI    C1' 5975   4.156   5.232   4.207  0.3765  0.2816  0.7963
  315EMI    H1' 5976   4.155   5.124   4.214 -3.1919 -0.0569  0.1240
  315EMI    H1' 5977   4.182   5.267   4.106  1.1357  0.9515  0.1113
  315EMI    H1' 5978   4.230   5.268   4.275 -1.0275 -1.4164  0.8926
  315EMI    C1" 5979   3.737   5.445   4.357 -0.5892 -0.6953  0.0717
  315EMI    H1" 5980   3.634   5.409   4.341  0.1245  1.4919  1.0568
  315EMI    H1" 5981   3.756   5.548   4.318  1.6747  2.2499 -0.5166
  315EMI    C2" 5982   3.751   5.433   4.510  0.4690 -0.1499  0.0779
  315EMI    H2" 5983   3.739   5.327   4.538 -2.4703  1.0123 -0.2068
  315EMI    H2" 5984   3.847   5.476   4.542  1.5332  2.4693 -1.1258
  315EMI    H2" 5985   3.665   5.489   4.556  0.5684  3.1876  1.0271
  316EMI     N1 5986   1.453   5.761   3.265  0.1358  0.1216 -0.4772
  316EMI     C2 5987   1.492   5.855   3.176 -0.4303  0.4128  0.4426
  316EMI     N3 5988   1.542   5.798   3.067  0.0598 -0.1280 -0.1793
  316EMI     C4 5989   1.538   5.660   3.086  0.1985  0.1405 -0.4502
  316EMI     C5 5990   1.494   5.638   3.213  0.0029  0.3961 -0.7596
  316EMI     H2 5991   1.466   5.963   3.192 -1.2515  0.4486 -1.3381
  316EMI     H4 5992   1.572   5.582   3.017  0.1696 -1.2810 -0.5753
  316EMI     H5 5993   1.478   5.544   3.263 -1.3887  0.1564  0.8484
  316EMI    C1' 5994   1.599   5.865   2.950  0.0330  0.0284  0.6423
  316EMI    H1' 5995   1.666   5.792   2.891  1.5547  1.0952 -0.3550
  316EMI    H1' 5996   1.528   5.915   2.894  0.0453 -2.7469 -1.0779
  316EMI    H1' 5997   1.662   5.943   2.993 -1.2746  3.3545 -1.4364
  316EMI    C1" 5998   1.405   5.764   3.408  0.7075  0.6207  1.1309
  316EMI    H1" 5999   1.360   5.669   3.440  0.3691 -0.9453  1.0225
  316EMI    H1" 6000   1.327   5.838   3.419  0.3987  2.4200 -1.5673
  316EMI    C2" 6001   1.509   5.807   3.512  0.3846 -0.2237  0.0414
  316EMI    H2" 6002   1.465   5.795   3.613 -2.9231 -1.2097  1.2896
  316EMI    H2" 6003   1.595   5.741   3.501  2.0680  0.5321  0.4337
  316EMI    H2" 6004   1.539   5.914   3.496 -2.3705 -0.5053  0.5438
  317EMI     N1 6005   3.809   2.426   2.950  0.2962  0.9887  0.4785
  317EMI     C2 6006   3.779   2.367   3.062  0.6732  0.0833 -0.7283
  317EMI     N3 6007   3.876   2.296   3.116 -0.2587 -0.0988  0.0952
  317EMI     C4 6008   3.976   2.302   3.020  0.0303  0.0265  0.0173
  317EMI     C5 6009   3.929   2.374   2.917 -0.1665 -0.7994  0.8710
  317EMI     H2 6010   3.682   2.388   3.110 -1.0887  0.6525 -3.4230
  317EMI     H4 6011   4.072   2.250   3.027 -1.3566 -0.1506 -0.4522
  317EMI     H5 6012   3.995   2.398   2.826  1.4971 -0.8785  1.3609
  317EMI    C1' 6013   3.879   2.223   3.249  0.4500 -1.2247 -0.3163
  317EMI    H1' 6014   3.936   2.127   3.231  2.5588 -0.9875 -0.6969
  317EMI    H1' 6015   3.945   2.277   3.322  0.5310  1.1879  2.0836
  317EMI    H1' 6016   3.783   2.199   3.292  0.0358 -4.2183  1.0741
  317EMI    C1" 6017   3.740   2.523   2.864 -0.0768  0.0543 -0.0105
  317EMI    H1" 6018   3.809   2.577   2.794 -1.3957  1.4893 -1.0976
  317EMI    H1" 6019   3.680   2.595   2.931  0.4801  2.2919 -1.1258
  317EMI    C2" 6020   3.631   2.453   2.779  0.0229 -0.6325  0.3294
  317EMI    H2" 6021   3.672   2.365   2.734  0.6746  0.2511 -3.7773
  317EMI    H2" 6022   3.546   2.434   2.842  1.0756  2.8843  1.9215
  317EMI    H2" 6023   3.605   2.535   2.714  2.1224  0.4255 -0.9769
  318EMI     N1 6024   2.427   5.350   3.319 -0.1236 -0.2777 -0.0344
  318EMI     C2 6025   2.553   5.402   3.327 -0.0400  0.5518 -0.1108
  318EMI     N3 6026   2.607   5.413   3.207 -0.5084 -0.3455 -0.0049
  318EMI     C4 6027   2.516   5.356   3.123 -0.3637  0.1279  0.9442
  318EMI     C5 6028   2.402   5.324   3.188  0.2017  0.1117  0.2367
  318EMI     H2 6029   2.588   5.433   3.423 -0.2487 -0.7910  1.3569
  318EMI     H4 6030   2.538   5.335   3.016 -1.4674 -3.2155 -1.0544
  318EMI     H5 6031   2.325   5.273   3.138  4.1112  1.0652  0.8778
  318EMI    C1' 6032   2.730   5.476   3.151 -0.3935 -0.1385 -0.2718
  318EMI    H1' 6033   2.814   5.440   3.209  2.1475 -0.0528  3.0170
  318EMI    H1' 6034   2.731   5.466   3.045 -0.9040 -0.2794  1.1134
  318EMI    H1' 6035   2.721   5.579   3.172  1.8122 -0.0831  1.1864
  318EMI    C1" 6036   2.323   5.332   3.424 -0.4280  0.3815 -0.0704
  318EMI    H1" 6037   2.246   5.412   3.408 -0.7892  2.3771 -1.3110
  318EMI    H1" 6038   2.380   5.341   3.521 -1.6668  2.0851  2.4027
  318EMI    C2" 6039   2.251   5.196   3.404  0.2270 -0.5142 -0.0029
  318EMI    H2" 6040   2.174   5.197   3.325  0.5038  0.7184 -1.5072
  318EMI    H2" 6041   2.332   5.123   3.383  0.3987  1.2477  0.7195
  318EMI    H2" 6042   2.198   5.181   3.497 -0.0159 -3.3902  0.3575
  319EMI     N1 6043   5.130   2.906   2.485 -0.3826 -0.5041 -0.4759
  319EMI     C2 6044   5.026   2.817   2.500 -0.0887  0.6938 -0.5220
  319EMI     N3 6045   4.922   2.853   2.422  0.2440  0.0097 -0.2439
  319EMI     C4 6046   4.967   2.962   2.345 -0.0691  0.1210  0.1142
  319EMI     C5 6047   5.091   2.999   2.386 -0.1377  0.0182  0.0505
  319EMI     H2 6048   5.011   2.740   2.574 -0.2499 -4.8413 -0.3623
  319EMI     H4 6049   4.913   3.014   2.264  2.0977 -1.7913 -2.3589
  319EMI     H5 6050   5.143   3.082   2.350 -2.5176  1.8551  1.0007
  319EMI    C1' 6051   4.790   2.796   2.402 -0.5583  0.2519  0.7716
  319EMI    H1' 6052   4.723   2.832   2.474  0.1412 -0.8483  0.4788
  319EMI    H1' 6053   4.760   2.814   2.299  0.1941 -0.2360  1.3842
  319EMI    H1' 6054   4.781   2.686   2.405 -1.5067 -0.4058  1.5676
  319EMI    C1" 6055   5.267   2.909   2.535  0.4288  0.4390 -0.6289
  319EMI    H1" 6056   5.278   2.853   2.632 -0.7152  2.3600  3.1362
  319EMI    H1" 6057   5.307   3.008   2.537  2.7284  2.0999  0.0117
  319EMI    C2" 6058   5.355   2.836   2.437  0.6640  1.0499 -0.0633
  319EMI    H2" 6059   5.357   2.887   2.345  0.1450 -2.7626 -0.9268
  319EMI    H2" 6060   5.461   2.842   2.472 -0.2976 -1.0908  1.6694
  319EMI    H2" 6061   5.332   2.737   2.420  0.2392  1.7659  0.7939
  320EMI     N1 6062   4.226   4.794   2.478 -0.4858 -0.0734 -0.1433
  320EMI     C2 6063   4.176   4.704   2.390  0.7176  0.2455 -1.1524
  320EMI     N3 6064   4.216   4.735   2.266  0.1331 -0.4573  0.1693
  320EMI     C4 6065   4.299   4.847   2.271 -0.0240  0.4292  0.2616
  320EMI     C5 6066   4.298   4.880   2.402 -0.0623  0.1815  0.6967
  320EMI     H2 6067   4.104   4.629   2.410 -1.5531  3.6224 -0.1434
  320EMI     H4 6068   4.348   4.901   2.183  0.6577  1.3944 -2.1817
  320EMI     H5 6069   4.339   4.967   2.448 -0.7609  0.2225  0.4690
  320EMI    C1' 6070   4.195   4.671   2.137  0.0137  0.3092 -0.2073
  320EMI    H1' 6071   4.140   4.579   2.170 -2.9211 -0.9312  1.0786
  320EMI    H1' 6072   4.144   4.740   2.064  2.7235 -0.9644 -2.3049
  320EMI    H1' 6073   4.293   4.644   2.104 -2.1782 -1.8973  4.1659
  320EMI    C1" 6074   4.221   4.807   2.618 -0.0446 -0.0511 -0.0680
  320EMI    H1" 6075   4.159   4.726   2.665  0.9021 -0.6202 -0.4743
  320EMI    H1" 6076   4.164   4.895   2.636 -2.8759  0.1315 -1.5130
  320EMI    C2" 6077   4.354   4.797   2.685 -0.2193 -0.1773 -0.3635
  320EMI    H2" 6078   4.386   4.696   2.665  2.2850  0.1341  2.5754
  320EMI    H2" 6079   4.436   4.857   2.647 -1.5962  0.3793 -0.7281
  320EMI    H2" 6080   4.333   4.801   2.790 -0.2516  1.0963 -2.4815
  321EMI     N1 6081   2.735   1.079   2.428 -0.1390  0.4555 -0.4881
  321EMI     C2 6082   2.865   1.069   2.472 -0.2193  0.1450  0.2278
  321EMI     N3 6083   2.939   1.180   2.434 -0.7881  0.5147 -0.0899
  321EMI     C4 6084   2.847   1.263   2.368  0.3794 -0.0638  0.1142
  321EMI     C5 6085   2.724   1.200   2.369 -0.3207  0.5492  0.3710
  321EMI     H2 6086   2.904   0.983   2.520  1.5812  0.9393  0.4103
  321EMI     H4 6087   2.870   1.364   2.351  1.1994  0.2038 -0.6896
  321EMI     H5 6088   2.628   1.237   2.329 -2.0328 -0.1754 -0.8983
  321EMI    C1' 6089   3.083   1.212   2.443  0.0770 -0.0782 -0.2291
  321EMI    H1' 6090   3.139   1.126   2.410  0.5238  0.3871 -0.2296
  321EMI    H1' 6091   3.099   1.299   2.382  1.1485 -1.1770 -1.4784
  321EMI    H1' 6092   3.107   1.236   2.551 -0.5336  1.7059  0.5326
  321EMI    C1" 6093   2.627   0.988   2.438  0.7463 -0.4601 -0.0498
  321EMI    H1" 6094   2.540   1.048   2.475  0.1076  0.2769  0.3552
  321EMI    H1" 6095   2.648   0.918   2.517 -1.0949  1.8242 -2.3991
  321EMI    C2" 6096   2.578   0.910   2.315 -0.5374 -0.2558 -0.1652
  321EMI    H2" 6097   2.670   0.860   2.273  0.5986 -0.8437  0.4099
  321EMI    H2" 6098   2.506   0.846   2.361 -0.4597 -0.5253 -0.6398
  321EMI    H2" 6099   2.525   0.975   2.243  1.5132  1.0337  0.7335
  322EMI     N1 6100   6.209   4.716   2.230 -0.8334  0.2785 -0.0956
  322EMI     C2 6101   6.095   4.662   2.267 -0.0872  0.3980  0.3553
  322EMI     N3 6102   6.105   4.578   2.375  0.3991  0.0473 -0.5988
  322EMI     C4 6103   6.235   4.570   2.406  0.0372 -0.3371  0.2088
  322EMI     C5 6104   6.299   4.654   2.315 -0.4078  0.5482 -0.8732
  322EMI     H2 6105   5.993   4.684   2.224  1.9339 -0.9914  3.0529
  322EMI     H4 6106   6.278   4.516   2.485 -0.8225  1.8142 -1.6258
  322EMI     H5 6107   6.407   4.672   2.317 -0.6292 -1.0993 -1.6624
  322EMI    C1' 6108   5.991   4.504   2.443  0.0038 -0.4263  0.0729
  322EMI    H1' 6109   6.026   4.434   2.519 -0.1942  1.4221  1.0056
  322EMI    H1' 6110   5.917   4.580   2.486 -0.0439 -0.0712  1.8108
  322EMI    H1' 6111   5.938   4.443   2.369 -1.4372  2.1197 -0.5486
  322EMI    C1" 6112   6.247   4.806   2.119 -0.5499  0.4670 -0.5751
  322EMI    H1" 6113   6.321   4.875   2.159  0.8182  0.2740 -0.5442
  322EMI    H1" 6114   6.160   4.866   2.084  0.1293  2.5276 -0.8801
  322EMI    C2" 6115   6.324   4.734   2.002 -0.1863  1.0537 -0.8161
  322EMI    H2" 6116   6.422   4.683   2.021  2.4096  0.5803  1.1301
  322EMI    H2" 6117   6.259   4.668   1.947 -0.4167  0.8910  1.2244
  322EMI    H2" 6118   6.353   4.804   1.924  0.8844  0.1393 -0.8140
  323EMI     N1 6119   0.006   4.427   0.378  0.1918 -0.5888  0.0856
  323EMI     C2 6120  -0.036   4.361   0.271 -0.3031 -0.7785 -0.7674
  323EMI     N3 6121   0.074   4.335   0.188  0.8331 -0.7020  0.0525
  323EMI     C4 6122   0.180   4.389   0.244 -0.4779  1.4698  0.1172
  323EMI     C5 6123   0.142   4.441   0.359  0.2335 -0.5048 -0.3621
  323EMI     H2 6124  -0.141   4.333   0.239 -0.2290  1.3551  1.6559
  323EMI     H4 6125   0.278   4.376   0.208 -1.7606  0.9575  0.4090
  323EMI     H5 6126   0.206   4.493   0.433 -0.4444  0.2193  0.0992
  323EMI    C1' 6127   0.067   4.251   0.072 -0.5453  0.0081  0.0176
  323EMI    H1' 6128   0.004   4.292  -0.008  1.0280 -1.1925 -0.8282
  323EMI    H1' 6129   0.172   4.239   0.035 -1.0979  1.7373  2.5925
  323EMI    H1' 6130   0.034   4.151   0.089  2.4461 -1.3198 -2.3630
  323EMI    C1" 6131  -0.062   4.485   0.491  0.0729  0.0465 -0.2961
  323EMI    H1" 6132  -0.047   4.589   0.483  0.4457  1.6826 -1.4403
  323EMI    H1" 6133  -0.029   4.451   0.584  0.2979  0.7769  3.7881
  323EMI    C2" 6134  -0.218   4.478   0.487 -0.1035  0.1044 -0.5503
  323EMI    H2" 6135  -0.268   4.530   0.405  0.1467 -1.3899 -1.4621
  323EMI    H2" 6136  -0.258   4.377   0.493  1.0567 -0.5605  0.4886
  323EMI    H2" 6137  -0.250   4.531   0.581  0.0898  0.6634  5.2416
  324EMI     N1 6138   3.320   3.605   3.735 -0.2102 -0.1714  0.2602
  324EMI     C2 6139   3.280   3.704   3.816  0.4501 -0.8145  0.1903
  324EMI     N3 6140   3.335   3.689   3.939 -0.5708  0.0792 -0.7051
  324EMI     C4 6141   3.413   3.572   3.931 -0.5630  0.4059  0.3131
  324EMI     C5 6142   3.405   3.520   3.808  0.4581  0.5766  0.0446
  324EMI     H2 6143   3.219   3.789   3.789  0.5695 -1.0895  2.1108
  324EMI     H4 6144   3.459   3.529   4.012 -1.2572  0.1376 -1.9324
  324EMI     H5 6145   3.453   3.428   3.774  2.8333  1.6279 -0.3917
  324EMI    C1' 6146   3.319   3.768   4.066  0.4885  0.2569  0.4396
  324EMI    H1' 6147   3.291   3.871   4.045 -1.4227  0.5862  3.3726
  324EMI    H1' 6148   3.241   3.723   4.127 -2.5719 -0.8772  1.3971
  324EMI    H1' 6149   3.419   3.771   4.117  0.4477 -0.1365 -2.1022
  324EMI    C1" 6150   3.272   3.573   3.596  0.1156 -0.3223 -0.1681
  324EMI    H1" 6151   3.201   3.649   3.566  0.5731  2.3548 -2.9055
  324EMI    H1" 6152   3.229   3.473   3.591 -1.4953 -2.0129  0.7908
  324EMI    C2" 6153   3.396   3.570   3.505 -0.0964 -0.1713 -0.2263
  324EMI    H2" 6154   3.459   3.491   3.523 -2.1754  2.7482  3.5123
  324EMI    H2" 6155   3.362   3.559   3.407 -1.0747 -0.3009  1.0737
  324EMI    H2" 6156   3.461   3.654   3.519 -0.8347  1.0882 -1.4640
  325EMI     N1 6157   6.044   3.533   0.314  0.1517 -0.0809  0.5227
  325EMI     C2 6158   6.133   3.426   0.308  0.2321  0.2519 -0.0826
  325EMI     N3 6159   6.254   3.478   0.278 -0.0095  0.6364  0.0529
  325EMI     C4 6160   6.243   3.614   0.262 -0.8003  0.6662  0.3057
  325EMI     C5 6161   6.113   3.647   0.287 -0.1490 -0.1956 -0.3144
  325EMI     H2 6162   6.103   3.320   0.312 -0.1853  1.0392 -1.9450
  325EMI     H4 6163   6.314   3.684   0.235  0.3660  2.2492 -1.1921
  325EMI     H5 6164   6.061   3.744   0.291 -2.0083 -1.1367 -0.6283
  325EMI    C1' 6165   6.376   3.397   0.280 -0.3256  0.4311  0.0698
  325EMI    H1' 6166   6.378   3.324   0.358 -2.1283 -1.2965  0.8229
  325EMI    H1' 6167   6.381   3.353   0.175 -0.6217  0.3837 -1.4675
  325EMI    H1' 6168   6.463   3.468   0.295 -1.8172  2.5488  1.3522
  325EMI    C1" 6169   5.897   3.538   0.337  0.6182  0.4922  0.3736
  325EMI    H1" 6170   5.869   3.433   0.325  2.8575 -0.8715  1.5030
  325EMI    H1" 6171   5.849   3.597   0.261 -1.5852 -1.6066 -0.5941
  325EMI    C2" 6172   5.858   3.594   0.479  0.3058 -1.1453  0.3806
  325EMI    H2" 6173   5.752   3.598   0.484 -2.5231  0.7534  0.6090
  325EMI    H2" 6174   5.904   3.537   0.561 -1.2007 -1.2565 -1.0280
  325EMI    H2" 6175   5.903   3.693   0.490  1.2739 -2.5230  0.6230
  326EMI     N1 6176   3.669   2.918   3.334  0.0204 -0.1070  0.6687
  326EMI     C2 6177   3.703   3.046   3.326 -0.3645  0.0484  0.6775
  326EMI     N3 6178   3.783   3.064   3.217 -0.2565 -0.2834  0.0675
  326EMI     C4 6179   3.815   2.940   3.166  0.5425 -0.1633  0.2036
  326EMI     C5 6180   3.750   2.849   3.243  0.3285 -0.0170  0.0069
  326EMI     H2 6181   3.673   3.115   3.405 -1.5262 -1.9814 -1.9953
  326EMI     H4 6182   3.880   2.933   3.079 -1.1346 -0.5058 -1.6581
  326EMI     H5 6183   3.739   2.743   3.244 -1.3481  0.9988  0.1789
  326EMI    C1' 6184   3.837   3.194   3.168 -0.0154 -0.1762 -0.1863
  326EMI    H1' 6185   3.760   3.275   3.174 -0.4064 -0.7744  1.0774
  326EMI    H1' 6186   3.927   3.227   3.220 -3.4290  1.2250  0.2939
  326EMI    H1' 6187   3.874   3.186   3.070 -0.7141 -2.0674  3.3538
  326EMI    C1" 6188   3.573   2.854   3.434  0.3048 -0.2228 -0.1002
  326EMI    H1" 6189   3.580   2.916   3.528 -0.8638  1.6214  1.5132
  326EMI    H1" 6190   3.597   2.749   3.462  1.3220 -1.7546  2.1146
  326EMI    C2" 6191   3.424   2.854   3.390  0.2068  0.2821 -0.1821
  326EMI    H2" 6192   3.387   2.955   3.416  0.3055 -0.5193 -0.5620
  326EMI    H2" 6193   3.413   2.824   3.283 -0.0143 -0.5783 -2.0550
  326EMI    H2" 6194   3.372   2.780   3.440 -0.9145 -1.0876  1.4778
  327EMI     N1 6195   0.935   2.118   2.682  0.3193  0.4070  0.3970
  327EMI     C2 6196   0.930   2.004   2.764 -0.4883  0.3243  0.5982
  327EMI     N3 6197   0.827   2.009   2.856  0.1919 -0.0467  0.7632
  327EMI     C4 6198   0.758   2.130   2.823 -0.2029  0.0224 -0.0826
  327EMI     C5 6199   0.829   2.198   2.724 -0.8352 -0.5337 -0.3092
  327EMI     H2 6200   1.002   1.922   2.769 -1.0215  0.1118 -1.2349
  327EMI     H4 6201   0.673   2.164   2.876  0.8458 -0.5853 -0.0946
  327EMI     H5 6202   0.800   2.293   2.685  2.1184 -1.6421  0.8415
  327EMI    C1' 6203   0.796   1.917   2.965  0.6120 -1.0149 -0.2169
  327EMI    H1' 6204   0.734   1.962   3.051 -1.7462 -0.1727  0.2602
  327EMI    H1' 6205   0.742   1.843   2.912 -0.8082  3.0553 -1.3412
  327EMI    H1' 6206   0.890   1.869   2.992  0.0111 -1.6745 -3.2557
  327EMI    C1" 6207   1.029   2.158   2.575  0.4340 -0.2759 -0.0511
  327EMI    H1" 6208   0.993   2.254   2.527  2.5599  2.7586 -3.2511
  327EMI    H1" 6209   1.034   2.074   2.501  0.2038  0.8432 -0.9298
  327EMI    C2" 6210   1.177   2.167   2.625 -0.2843 -0.1490  0.5296
  327EMI    H2" 6211   1.192   2.092   2.699 -0.4651 -1.7361  0.3471
  327EMI    H2" 6212   1.247   2.157   2.544  0.8408  1.2423 -0.7373
  327EMI    H2" 6213   1.203   2.261   2.672  0.6504 -2.7598 -0.0177
  328EMI     N1 6214   3.670   4.307   0.355  0.2214 -0.2319 -0.0153
  328EMI     C2 6215   3.781   4.322   0.282 -0.3527  0.0599 -0.2563
  328EMI     N3 6216   3.872   4.232   0.315  0.3595 -0.3045 -0.9561
  328EMI     C4 6217   3.814   4.149   0.414  0.2358  0.8716  0.4230
  328EMI     C5 6218   3.694   4.202   0.439  0.1828 -0.5347 -0.4028
  328EMI     H2 6219   3.804   4.398   0.210  1.3262  0.4900 -0.6866
  328EMI     H4 6220   3.871   4.079   0.471 -2.6989 -1.4425  2.7061
  328EMI     H5 6221   3.636   4.170   0.525 -3.7977 -1.1153 -1.0234
  328EMI    C1' 6222   4.009   4.226   0.262  0.8566 -0.0084  0.2620
  328EMI    H1' 6223   4.075   4.235   0.343 -1.4818  0.7813 -1.4241
  328EMI    H1' 6224   4.036   4.133   0.209 -3.4436 -1.2731 -3.0983
  328EMI    H1' 6225   4.017   4.306   0.191 -1.7510  1.0703  3.0449
  328EMI    C1" 6226   3.547   4.390   0.377  0.5510 -0.2886  0.2554
  328EMI    H1" 6227   3.568   4.490   0.372 -0.1946 -2.5528  0.8844
  328EMI    H1" 6228   3.509   4.365   0.478  2.5749 -1.6738  1.0193
  328EMI    C2" 6229   3.444   4.359   0.271 -0.9602 -0.8538  0.6658
  328EMI    H2" 6230   3.406   4.257   0.280  0.4634 -0.2457 -1.3355
  328EMI    H2" 6231   3.359   4.431   0.276 -1.2538  3.1143 -2.0064
  328EMI    H2" 6232   3.493   4.385   0.179 -0.4250  2.8774  1.7183
  329EMI     N1 6233   4.437   5.983   4.171 -0.8714  0.0105  0.7243
  329EMI     C2 6234   4.551   6.032   4.228  0.8778 -0.5155  0.2639
  329EMI     N3 6235   4.643   6.051   4.129  0.4710 -0.2979  0.4895
  329EMI     C4 6236   4.587   5.991   4.012  0.0943  0.0534 -0.3704
  329EMI     C5 6237   4.462   5.951   4.042  0.3119 -0.4190  0.0577
  329EMI     H2 6238   4.565   6.053   4.332 -0.1666  3.2488 -0.1424
  329EMI     H4 6239   4.649   5.994   3.923 -0.2750 -0.9084  3.4025
  329EMI     H5 6240   4.395   5.908   3.969 -2.0111  2.2275  0.3099
  329EMI    C1' 6241   4.787   6.100   4.129  0.3407  0.5162 -0.0760
  329EMI    H1' 6242   4.802   6.200   4.171  1.5113  0.5664  0.3350
  329EMI    H1' 6243   4.842   6.033   4.189  0.5317  1.6621 -0.7844
  329EMI    H1' 6244   4.831   6.107   4.038  0.2592 -0.4526  0.5608
  329EMI    C1" 6245   4.313   5.935   4.233  0.0164 -0.0346 -0.3732
  329EMI    H1" 6246   4.328   5.934   4.338 -1.8974  0.2529  1.3895
  329EMI    H1" 6247   4.289   5.833   4.218 -2.3394  0.1089 -0.7291
  329EMI    C2" 6248   4.195   6.011   4.194  0.1350 -0.0048 -0.9756
  329EMI    H2" 6249   4.218   6.116   4.211  1.1371 -1.5220  1.6706
  329EMI    H2" 6250   4.170   5.986   4.089  1.5382 -1.8638  2.6888
  329EMI    H2" 6251   4.109   5.994   4.265 -1.5160 -0.0181  2.4882
  330EMI     N1 6252   5.488   3.143   6.165  0.3029 -0.3241 -0.4266
  330EMI     C2 6253   5.493   3.152   6.298  0.4274  0.0120 -0.1244
  330EMI     N3 6254   5.621   3.156   6.333 -0.3444  0.0627 -0.7526
  330EMI     C4 6255   5.697   3.142   6.224 -0.1534 -0.4848  0.0470
  330EMI     C5 6256   5.616   3.136   6.117 -0.0128  0.0668  0.3792
  330EMI     H2 6257   5.410   3.167   6.365  2.4581  2.3417 -1.2541
  330EMI     H4 6258   5.809   3.140   6.228  0.3590  0.8341  1.0963
  330EMI     H5 6259   5.651   3.129   6.009 -0.3263 -0.6373  0.0114
  330EMI    C1' 6260   5.682   3.165   6.463 -0.1201  0.5769  0.0121
  330EMI    H1' 6261   5.788   3.156   6.453 -0.4470 -0.4623 -1.4141
  330EMI    H1' 6262   5.652   3.264   6.499  0.0143  1.6965  1.1005
  330EMI    H1' 6263   5.653   3.095   6.541 -1.2275  0.5079 -0.7143
  330EMI    C1" 6264   5.378   3.145   6.070 -0.3114  0.4043  0.2828
  330EMI    H1" 6265   5.289   3.170   6.123  0.3197  1.8278 -0.6094
  330EMI    H1" 6266   5.373   3.055   6.013  4.0535 -1.1129 -0.0569
  330EMI    C2" 6267   5.402   3.265   5.973 -0.4939 -0.0183  0.6549
  330EMI    H2" 6268   5.500   3.263   5.920 -2.5546  2.1115 -1.6769
  330EMI    H2" 6269   5.316   3.273   5.903 -1.6184 -0.3054 -1.3977
  330EMI    H2" 6270   5.400   3.352   6.039 -0.7846 -0.3490 -1.7203
  331EMI     N1 6271   2.846   5.899   3.827  0.3612 -0.1130 -0.4996
  331EMI     C2 6272   2.782   6.014   3.802  1.4319 -0.3215 -0.2239
  331EMI     N3 6273   2.706   5.995   3.685 -0.4303 -0.7132 -0.0134
  331EMI     C4 6274   2.740   5.870   3.641 -0.3784  0.8565 -0.0752
  331EMI     C5 6275   2.824   5.809   3.724  0.5181  0.7705 -0.8054
  331EMI     H2 6276   2.800   6.098   3.866 -4.7101  1.2053  0.1742
  331EMI     H4 6277   2.707   5.823   3.553 -0.1749  2.2808  0.4047
  331EMI     H5 6278   2.869   5.707   3.708  2.2009  0.9495 -1.1800
  331EMI    C1' 6279   2.604   6.075   3.619 -0.4410 -0.8551  0.0572
  331EMI    H1' 6280   2.535   6.009   3.575  0.3762  1.6182  2.8667
  331EMI    H1' 6281   2.548   6.133   3.701  0.3580  0.8882  2.5012
  331EMI    H1' 6282   2.641   6.151   3.546 -0.4466  1.7876  0.5369
  331EMI    C1" 6283   2.926   5.868   3.947 -0.0096 -0.1852 -0.0402
  331EMI    H1" 6284   2.874   5.797   4.008  0.4479  0.2653  0.2001
  331EMI    H1" 6285   2.942   5.960   4.005 -0.8878  1.9368  0.9578
  331EMI    C2" 6286   3.070   5.826   3.902 -0.0958 -0.2706 -0.7616
  331EMI    H2" 6287   3.058   5.736   3.845  0.6748  2.2695 -2.2470
  331EMI    H2" 6288   3.115   5.903   3.846  1.8443  0.7408  0.3459
  331EMI    H2" 6289   3.126   5.806   3.990 -3.2120  0.7966  0.2627
  332EMI     N1 6290   6.344   2.676   0.294  0.6332  0.2185  1.0876
  332EMI     C2 6291   6.329   2.728   0.174  0.0999 -0.3123 -0.3346
  332EMI     N3 6292   6.199   2.766   0.153  1.0013  0.5217 -0.4574
  332EMI     C4 6293   6.124   2.722   0.262 -0.0114  0.0642 -0.8841
  332EMI     C5 6294   6.218   2.671   0.347 -0.7898  0.1306 -0.1632
  332EMI     H2 6295   6.409   2.737   0.101 -0.3503 -0.5009  0.7802
  332EMI     H4 6296   6.018   2.717   0.261  0.9480 -2.1369 -3.5122
  332EMI     H5 6297   6.189   2.616   0.438 -2.0274 -2.4935 -0.0749
  332EMI    C1' 6298   6.133   2.816   0.034 -0.5525 -0.8427  0.3529
  332EMI    H1' 6299   6.168   2.753  -0.054  0.8718  0.0979 -1.9649
  332EMI    H1' 6300   6.026   2.800   0.053 -2.1831 -0.2517 -0.7504
  332EMI    H1' 6301   6.149   2.923   0.019  0.8458  0.0065  1.9164
  332EMI    C1" 6302   6.461   2.615   0.369  0.1221 -0.3124  0.3550
  332EMI    H1" 6303   6.417   2.560   0.450  0.4747  1.8893  4.2720
  332EMI    H1" 6304   6.535   2.684   0.421  2.6727  1.9295 -0.5013
  332EMI    C2" 6305   6.535   2.510   0.285 -0.0767  0.1301 -0.3763
  332EMI    H2" 6306   6.589   2.558   0.202  2.0956  0.1431 -0.1379
  332EMI    H2" 6307   6.608   2.452   0.340  1.5784 -1.8458 -1.7885
  332EMI    H2" 6308   6.461   2.449   0.239 -1.1627  1.3940  1.9052
  333EMI     N1 6309   4.189   5.394   1.632 -0.0398  0.2042  0.3956
  333EMI     C2 6310   4.219   5.260   1.634  0.5329 -0.2140 -0.0819
  333EMI     N3 6311   4.299   5.235   1.528 -0.1436  0.3732 -0.0163
  333EMI     C4 6312   4.318   5.353   1.459 -0.8109  0.2635 -0.1394
  333EMI     C5 6313   4.263   5.451   1.527 -0.5155 -0.2258 -0.5121
  333EMI     H2 6314   4.186   5.189   1.706  1.3206  0.5267 -1.3629
  333EMI     H4 6315   4.391   5.372   1.384 -1.6083 -0.2588  0.8850
  333EMI     H5 6316   4.265   5.563   1.504  1.4107 -0.5503 -0.9638
  333EMI    C1' 6317   4.344   5.104   1.489  0.5785  0.1749  0.2308
  333EMI    H1' 6318   4.414   5.074   1.562  0.6112  1.7575 -1.6292
  333EMI    H1' 6319   4.260   5.031   1.474  0.8636  0.0755 -1.1064
  333EMI    H1' 6320   4.401   5.120   1.400 -2.1026 -0.2314  0.9241
  333EMI    C1" 6321   4.108   5.471   1.733 -0.2743  0.0693  0.2814
  333EMI    H1" 6322   4.004   5.481   1.692 -0.8509 -0.9582 -0.9004
  333EMI    H1" 6323   4.158   5.568   1.737 -0.5152  0.1901  0.6781
  333EMI    C2" 6324   4.112   5.409   1.872  0.4752 -0.7373 -0.4340
  333EMI    H2" 6325   4.089   5.306   1.862 -1.5198  1.6458  1.6057
  333EMI    H2" 6326   4.205   5.430   1.921  0.5770  0.2019  3.7549
  333EMI    H2" 6327   4.032   5.463   1.925 -1.0074  2.7594 -0.8008
  334EMI     N1 6328   2.890   3.976   3.382  0.1053  0.1421  0.4011
  334EMI     C2 6329   2.760   3.978   3.344  0.2081  0.1995 -0.2049
  334EMI     N3 6330   2.685   4.047   3.432 -0.4463 -0.0570 -0.5191
  334EMI     C4 6331   2.771   4.068   3.541  0.0385 -0.2685 -0.3841
  334EMI     C5 6332   2.894   4.028   3.510  0.1189 -0.3312 -0.0461
  334EMI     H2 6333   2.723   3.937   3.253  0.3496 -1.8212 -0.7600
  334EMI     H4 6334   2.741   4.113   3.633  0.7205 -0.3666  3.2869
  334EMI     H5 6335   2.972   4.035   3.573 -0.3163  0.9561 -2.7313
  334EMI    C1' 6336   2.544   4.071   3.430 -1.1998  0.3614 -0.1635
  334EMI    H1' 6337   2.509   4.093   3.530  1.8843  1.3536 -0.1869
  334EMI    H1' 6338   2.517   4.152   3.359  1.7023 -1.2921  2.7453
  334EMI    H1' 6339   2.493   3.987   3.387 -0.8134 -1.0768  0.5795
  334EMI    C1" 6340   3.008   3.905   3.325  0.0211  0.1510  0.1480
  334EMI    H1" 6341   3.090   3.966   3.366 -0.7929 -0.5864 -1.6299
  334EMI    H1" 6342   3.000   3.912   3.219  1.1458 -1.3599 -0.7474
  334EMI    C2" 6343   3.016   3.755   3.360  0.3431  0.2972 -0.2394
  334EMI    H2" 6344   3.104   3.714   3.313  0.1380  1.8757  1.5547
  334EMI    H2" 6345   3.049   3.739   3.463  2.0370  1.9408  1.8207
  334EMI    H2" 6346   2.930   3.696   3.333  2.8793  1.3655  1.4028
  335EMI     N1 6347   4.068   1.318   6.283  0.5702  0.7762  0.2492
  335EMI     C2 6348   4.172   1.235   6.285  0.0515  0.6311  0.5215
  335EMI     N3 6349   4.138   1.110   6.261  0.1380 -0.1882 -0.1006
  335EMI     C4 6350   4.000   1.110   6.259  0.7059  0.5779  0.2763
  335EMI     C5 6351   3.956   1.236   6.273 -0.1338  0.1468 -0.2239
  335EMI     H2 6352   4.274   1.252   6.285 -1.3676 -1.2939 -1.4432
  335EMI     H4 6353   3.940   1.022   6.249  0.6862 -0.3198 -1.6598
  335EMI     H5 6354   3.852   1.273   6.289 -2.9369 -0.1097 -0.3526
  335EMI    C1' 6355   4.218   0.989   6.249 -0.8511  0.4809 -0.4369
  335EMI    H1' 6356   4.319   1.023   6.282  1.9236 -0.6591 -2.9321
  335EMI    H1' 6357   4.175   0.908   6.306 -0.7025 -2.0340 -0.9278
  335EMI    H1' 6358   4.235   0.958   6.141  1.7726 -0.1870 -1.7593
  335EMI    C1" 6359   4.051   1.465   6.305  0.7334  0.0820  0.3208
  335EMI    H1" 6360   4.032   1.485   6.414 -0.5861 -2.4046  3.7191
  335EMI    H1" 6361   3.970   1.499   6.238  0.4806  0.9723 -2.6962
  335EMI    C2" 6362   4.182   1.544   6.282  0.0866  0.6794 -0.1156
  335EMI    H2" 6363   4.249   1.526   6.362 -2.4314 -1.3446 -2.5250
  335EMI    H2" 6364   4.239   1.520   6.190 -0.7396 -1.6413 -1.3613
  335EMI    H2" 6365   4.150   1.647   6.300  2.0321 -1.7924  0.4647
  336EMI     N1 6366   0.194   3.450   3.153  0.0649  0.7154  0.0796
  336EMI     C2 6367   0.139   3.412   3.039 -0.2981  0.2937 -0.2469
  336EMI     N3 6368   0.220   3.453   2.935  0.1433  0.3469  0.2732
  336EMI     C4 6369   0.335   3.505   2.993 -0.1502  0.4016  0.0615
  336EMI     C5 6370   0.317   3.506   3.127 -0.2557  0.4923  0.5683
  336EMI     H2 6371   0.050   3.356   3.032 -0.2351 -0.9652  0.1465
  336EMI     H4 6372   0.418   3.545   2.938  2.6264  0.3699  0.6912
  336EMI     H5 6373   0.381   3.541   3.203 -0.7164 -2.5096 -3.2760
  336EMI    C1' 6374   0.204   3.447   2.792  0.2177  0.0763 -0.1527
  336EMI    H1' 6375   0.229   3.543   2.761 -0.1061  1.5201 -0.7074
  336EMI    H1' 6376   0.266   3.370   2.753  1.3255 -0.5524  1.0933
  336EMI    H1' 6377   0.098   3.429   2.771  1.5085 -0.9232 -1.0548
  336EMI    C1" 6378   0.150   3.413   3.294  0.2090 -0.2065 -0.4016
  336EMI    H1" 6379   0.215   3.467   3.361 -0.1098 -1.9163  1.4655
  336EMI    H1" 6380   0.168   3.309   3.303 -0.5036  1.0810 -3.1748
  336EMI    C2" 6381  -0.002   3.451   3.307 -0.0700  0.5589 -0.3336
  336EMI    H2" 6382  -0.017   3.564   3.288  2.9243  3.6927  0.6637
  336EMI    H2" 6383  -0.074   3.396   3.235 -5.0156 -2.1119 -3.8224
  336EMI    H2" 6384  -0.032   3.423   3.406  4.6516  2.3632 -0.3956
  337EMI     N1 6385   2.887   0.281   2.508  0.9453 -0.7419 -0.0489
  337EMI     C2 6386   2.991   0.248   2.583 -0.8324  0.0035 -1.2771
  337EMI     N3 6387   3.087   0.346   2.573  0.8494 -0.1179 -0.7754
  337EMI     C4 6388   3.034   0.446   2.491 -0.0435 -0.6013  0.3268
  337EMI     C5 6389   2.915   0.408   2.451  0.1265 -0.6488 -0.4749
  337EMI     H2 6390   3.001   0.156   2.633 -2.0228 -0.9034 -2.6263
  337EMI     H4 6391   3.087   0.535   2.459 -1.5816  0.4981  0.5461
  337EMI     H5 6392   2.851   0.463   2.381 -3.2466  0.6411 -2.5281
  337EMI    C1' 6393   3.222   0.357   2.631  0.7599  0.2360 -0.0659
  337EMI    H1' 6394   3.284   0.379   2.544 -2.1995  1.6683 -2.3936
  337EMI    H1' 6395   3.212   0.438   2.703 -0.7467 -2.7109  0.6918
  337EMI    H1' 6396   3.242   0.263   2.684  1.0289 -2.5572  2.8524
  337EMI    C1" 6397   2.759   0.215   2.490 -0.8159  0.1174 -0.0118
  337EMI    H1" 6398   2.773   0.112   2.483  1.4240  2.5123 -0.8874
  337EMI    H1" 6399   2.716   0.259   2.400 -0.2273 -4.2657 -0.4939
  337EMI    C2" 6400   2.664   0.249   2.608  0.2911 -0.3918 -0.1450
  337EMI    H2" 6401   2.689   0.192   2.702  1.6427 -0.1249  1.7848
  337EMI    H2" 6402   2.678   0.349   2.638  0.6139  3.1321  1.5301
  337EMI    H2" 6403   2.561   0.237   2.575  0.5997  0.9464 -0.0203
  338EMI     N1 6404   5.453   4.619   2.617  0.3761  0.0303 -0.2365
  338EMI     C2 6405   5.392   4.540   2.524  0.0390  0.0653 -0.5878
  338EMI     N3 6406   5.478   4.465   2.460 -0.5861 -0.5086  0.3089
  338EMI     C4 6407   5.603   4.491   2.510  0.1196  0.0159 -0.1107
  338EMI     C5 6408   5.583   4.587   2.606 -0.2252  0.0078 -0.6426
  338EMI     H2 6409   5.289   4.536   2.505  2.5997 -3.6549  0.3938
  338EMI     H4 6410   5.690   4.440   2.481  2.5925  0.4646  0.9033
  338EMI     H5 6411   5.662   4.626   2.673  0.1595  0.3923  1.5843
  338EMI    C1' 6412   5.458   4.369   2.343 -0.2161  0.0792 -0.0066
  338EMI    H1' 6413   5.548   4.300   2.330 -2.2035  0.4403 -0.3405
  338EMI    H1' 6414   5.366   4.309   2.366  0.6769 -1.6187  0.0928
  338EMI    H1' 6415   5.452   4.417   2.248 -0.1460 -1.2933  1.0743
  338EMI    C1" 6416   5.399   4.719   2.712 -0.5960 -0.2772  0.4678
  338EMI    H1" 6417   5.477   4.745   2.785  0.7468  0.5483  2.8519
  338EMI    H1" 6418   5.325   4.657   2.751 -0.7552 -1.8463 -0.7152
  338EMI    C2" 6419   5.340   4.838   2.638 -0.4459  0.1262 -0.3837
  338EMI    H2" 6420   5.278   4.812   2.549  1.8238  2.4194 -0.2179
  338EMI    H2" 6421   5.274   4.883   2.709 -0.5160 -4.5151  0.1734
  338EMI    H2" 6422   5.421   4.907   2.602  1.1565  2.9206  0.1115
  339EMI     N1 6423   5.760   1.394   4.987 -0.2520  0.0429  0.3277
  339EMI     C2 6424   5.778   1.322   5.100  0.6195 -0.0817 -0.8135
  339EMI     N3 6425   5.692   1.367   5.191  0.2323 -0.1749 -0.1765
  339EMI     C4 6426   5.609   1.460   5.132  0.1925 -0.3077  0.6345
  339EMI     C5 6427   5.656   1.484   5.006  0.2115  0.5229 -0.3567
  339EMI     H2 6428   5.835   1.237   5.122 -1.7314 -2.1523 -0.0628
  339EMI     H4 6429   5.531   1.517   5.186  0.7246  1.0014  1.4044
  339EMI     H5 6430   5.613   1.559   4.944 -0.0208  1.3776  2.2857
  339EMI    C1' 6431   5.681   1.325   5.334  0.4856 -0.3660  0.2818
  339EMI    H1' 6432   5.669   1.217   5.328 -1.6917  0.2593  1.1179
  339EMI    H1' 6433   5.774   1.347   5.385  2.1513 -0.7548  1.1196
  339EMI    H1' 6434   5.586   1.363   5.383  0.0774  0.2347  1.3356
  339EMI    C1" 6435   5.841   1.393   4.863 -0.0734  0.3598 -0.1215
  339EMI    H1" 6436   5.819   1.462   4.786  1.8761 -2.5571 -2.6403
  339EMI    H1" 6437   5.832   1.295   4.818 -0.9269 -2.5879  0.1727
  339EMI    C2" 6438   5.990   1.404   4.902 -0.1921  0.0453 -0.4384
  339EMI    H2" 6439   6.002   1.498   4.950 -0.6507 -1.3963  1.5706
  339EMI    H2" 6440   6.012   1.332   4.978  0.2574  1.4317 -4.8848
  339EMI    H2" 6441   6.065   1.413   4.829  0.0111  0.6575 -0.4094
  340EMI     N1 6442   0.328   2.517   2.661  0.1892 -0.1018 -0.0180
  340EMI     C2 6443   0.280   2.442   2.558  0.5757  0.2741 -0.4506
  340EMI     N3 6444   0.376   2.366   2.500 -0.5174 -0.4009 -0.0478
  340EMI     C4 6445   0.489   2.384   2.573  0.2259  0.3293 -0.2496
  340EMI     C5 6446   0.457   2.474   2.671 -0.1753 -0.4080 -0.0196
  340EMI     H2 6447   0.183   2.459   2.522  0.5394  2.1985  0.2012
  340EMI     H4 6448   0.585   2.341   2.548  1.6786  0.2139  2.5548
  340EMI     H5 6449   0.523   2.513   2.757 -0.8256 -0.0537  2.1418
  340EMI    C1' 6450   0.380   2.292   2.372  0.5931  0.9612  0.8794
  340EMI    H1' 6451   0.396   2.372   2.296 -0.2176 -2.2758 -0.6079
  340EMI    H1' 6452   0.469   2.232   2.380  2.6436 -1.5307  3.7957
  340EMI    H1' 6453   0.299   2.231   2.352  0.9666  1.4844 -0.0102
  340EMI    C1" 6454   0.255   2.610   2.752  0.2717 -0.2717  0.1425
  340EMI    H1" 6455   0.308   2.626   2.841  0.7831  0.4817 -2.1515
  340EMI    H1" 6456   0.169   2.559   2.789  1.7177  4.4625  1.0633
  340EMI    C2" 6457   0.213   2.735   2.674 -0.2753  0.5297 -0.1568
  340EMI    H2" 6458   0.152   2.785   2.751 -2.4689 -1.2958 -1.8909
  340EMI    H2" 6459   0.304   2.799   2.665  1.8537  1.0027 -4.0013
  340EMI    H2" 6460   0.165   2.711   2.581  0.4758 -3.4309  3.4646
  341EMI     N1 6461   5.590   2.899   2.035  0.5013  0.0721  0.3191
  341EMI     C2 6462   5.458   2.924   2.016 -0.4296  0.0185  0.0193
  341EMI     N3 6463   5.435   2.997   1.902 -0.3391  0.3483  0.2866
  341EMI     C4 6464   5.569   3.019   1.848  0.5958  0.0415  0.6868
  341EMI     C5 6465   5.656   2.957   1.928 -0.1895  0.3694 -0.0441
  341EMI     H2 6466   5.380   2.880   2.084  0.7500  1.6475  2.2850
  341EMI     H4 6467   5.593   3.074   1.753 -1.6843  2.5420 -2.6214
  341EMI     H5 6468   5.766   2.954   1.909  0.4200 -1.6209 -0.1109
  341EMI    C1' 6469   5.312   3.037   1.840  0.1152  0.0644 -0.0172
  341EMI    H1' 6470   5.229   3.003   1.896 -2.6958 -2.3954 -0.2040
  341EMI    H1' 6471   5.299   3.145   1.849 -4.2048 -1.2858  0.3803
  341EMI    H1' 6472   5.308   3.005   1.737  0.7550  0.3276 -0.2006
  341EMI    C1" 6473   5.666   2.839   2.147  0.4170  0.5113 -0.1584
  341EMI    H1" 6474   5.764   2.826   2.110  1.1901 -2.0784 -3.3294
  341EMI    H1" 6475   5.634   2.739   2.170  1.6531 -0.3057 -4.4310
  341EMI    C2" 6476   5.671   2.943   2.263  0.0512  0.1001  0.2798
  341EMI    H2" 6477   5.721   3.033   2.221  1.5738  0.0778 -0.8554
  341EMI    H2" 6478   5.563   2.965   2.293 -2.9364  0.4949 -1.3598
  341EMI    H2" 6479   5.714   2.900   2.354 -2.2833  0.9307  0.3968
  342EMI     N1 6480   5.045   3.738   2.375 -0.1321 -0.0199 -0.8003
  342EMI     C2 6481   5.081   3.748   2.247 -0.2790 -0.2325 -0.3943
  342EMI     N3 6482   5.180   3.663   2.224  0.5762 -0.0175  0.2091
  342EMI     C4 6483   5.199   3.587   2.336  0.3525  0.0314  0.5535
  342EMI     C5 6484   5.123   3.639   2.430 -0.2870 -0.0025  0.9716
  342EMI     H2 6485   5.040   3.811   2.172  0.2733 -3.3386 -0.6783
  342EMI     H4 6486   5.266   3.505   2.367 -0.6950  0.2991  2.4862
  342EMI     H5 6487   5.123   3.600   2.532  0.6168 -0.2388 -0.4319
  342EMI    C1' 6488   5.253   3.624   2.110 -0.4314  0.1104  1.4073
  342EMI    H1' 6489   5.353   3.604   2.145  0.1592 -2.1173  1.2199
  342EMI    H1' 6490   5.200   3.546   2.057 -1.2889 -1.1757  0.1577
  342EMI    H1' 6491   5.258   3.710   2.038 -0.6292  1.5926 -0.6722
  342EMI    C1" 6492   4.950   3.812   2.465  0.1966  0.2044  0.5173
  342EMI    H1" 6493   4.992   3.839   2.559 -0.8884  0.1051 -0.6297
  342EMI    H1" 6494   4.877   3.737   2.489  0.2905  0.1738  0.2172
  342EMI    C2" 6495   4.878   3.936   2.395 -0.0822 -0.8698  0.0881
  342EMI    H2" 6496   4.800   3.973   2.464  1.7568 -0.4746 -1.1834
  342EMI    H2" 6497   4.951   4.009   2.369  0.3347  3.5979  0.5281
  342EMI    H2" 6498   4.831   3.901   2.299 -0.2549 -0.6608  0.0232
  343EMI     N1 6499   4.250   6.345   3.201 -0.5516  0.6912  0.3656
  343EMI     C2 6500   4.165   6.259   3.266 -0.1347  0.1525 -0.2647
  343EMI     N3 6501   4.182   6.263   3.400  0.4164  0.1271  0.0506
  343EMI     C4 6502   4.296   6.346   3.419 -0.0054  0.2757 -0.2370
  343EMI     C5 6503   4.335   6.399   3.297  0.4493  0.1649 -0.3461
  343EMI     H2 6504   4.095   6.200   3.209  2.3064 -2.5509 -0.8865
  343EMI     H4 6505   4.345   6.367   3.514 -0.1300 -2.4087 -1.7821
  343EMI     H5 6506   4.418   6.470   3.279  0.2880  1.7700  0.7583
  343EMI    C1' 6507   4.106   6.184   3.507 -0.3356 -0.5470 -0.1071
  343EMI    H1' 6508   4.104   6.243   3.599  1.7276 -0.8690 -0.7646
  343EMI    H1' 6509   4.007   6.157   3.463 -0.6371  1.9105 -3.7143
  343EMI    H1' 6510   4.178   6.100   3.531  1.9231 -0.7327 -0.4250
  343EMI    C1" 6511   4.272   6.366   3.055 -0.4449  0.0011 -1.0078
  343EMI    H1" 6512   4.335   6.453   3.034 -0.5031 -0.4598 -0.2026
  343EMI    H1" 6513   4.172   6.380   3.008 -1.1293 -0.2012  2.2344
  343EMI    C2" 6514   4.333   6.240   2.993 -0.4984 -0.5340  0.3599
  343EMI    H2" 6515   4.249   6.179   2.957  1.2592 -0.4722  0.5693
  343EMI    H2" 6516   4.386   6.268   2.898  2.0874 -2.0080 -1.2254
  343EMI    H2" 6517   4.400   6.180   3.064 -1.5976  0.6036  1.3289
  344EMI     N1 6518   4.044   3.148   0.961  0.2705  0.1715 -0.1342
  344EMI     C2 6519   3.968   3.137   0.853 -0.3491 -0.3598 -0.2634
  344EMI     N3 6520   3.860   3.217   0.858 -0.5621  0.3331  0.1962
  344EMI     C4 6521   3.864   3.276   0.982  0.6609  0.2078 -0.3956
  344EMI     C5 6522   3.974   3.235   1.042 -0.2342 -0.2866  0.1942
  344EMI     H2 6523   3.997   3.085   0.766 -1.4228  2.3461  1.4903
  344EMI     H4 6524   3.789   3.348   1.018  0.4267  0.6691 -3.0659
  344EMI     H5 6525   4.013   3.262   1.135  1.8945  2.0925 -1.6168
  344EMI    C1' 6526   3.764   3.256   0.748 -0.1541  0.1864 -0.1855
  344EMI    H1' 6527   3.749   3.181   0.674 -0.1819  1.3550  0.7741
  344EMI    H1' 6528   3.673   3.300   0.784 -2.6052  0.5809 -0.2338
  344EMI    H1' 6529   3.806   3.341   0.698  0.7330  0.5052  1.5992
  344EMI    C1" 6530   4.169   3.076   0.999 -0.5015 -0.2700 -0.6964
  344EMI    H1" 6531   4.171   3.075   1.110  0.6110 -0.7359  0.8059
  344EMI    H1" 6532   4.255   3.119   0.941  0.5868  0.3366 -1.9962
  344EMI    C2" 6533   4.183   2.928   0.953  0.3315 -0.6048  0.4156
  344EMI    H2" 6534   4.287   2.892   0.977  3.9680  2.2081  1.0670
  344EMI    H2" 6535   4.105   2.873   1.005  1.0775  0.5308 -1.8071
  344EMI    H2" 6536   4.166   2.924   0.849 -2.1682  1.5354  2.2693
  345EMI     N1 6537   0.510   5.143   2.676 -0.0636 -0.7642  1.2139
  345EMI     C2 6538   0.453   5.250   2.727  0.1687  0.3516 -0.1283
  345EMI     N3 6539   0.518   5.360   2.688  0.1791  0.0957 -0.6154
  345EMI     C4 6540   0.628   5.317   2.614 -0.5686 -0.4035  0.0037
  345EMI     C5 6541   0.618   5.187   2.603  0.6157  0.1525 -0.4048
  345EMI     H2 6542   0.376   5.242   2.796 -2.1565 -1.8509  0.4503
  345EMI     H4 6543   0.699   5.391   2.571  0.6895  0.2354 -0.0188
  345EMI     H5 6544   0.688   5.130   2.549  1.7242  0.3442 -1.6508
  345EMI    C1' 6545   0.492   5.505   2.712 -0.1508  0.5466 -0.2454
  345EMI    H1' 6546   0.521   5.561   2.628 -1.3375 -0.1617 -0.1242
  345EMI    H1' 6547   0.392   5.523   2.733  1.7464 -0.5937 -0.2825
  345EMI    H1' 6548   0.551   5.547   2.791  0.8180 -0.7316  0.6896
  345EMI    C1" 6549   0.468   5.007   2.675  0.1571  0.0026 -0.1393
  345EMI    H1" 6550   0.548   4.951   2.717  0.9787 -0.1620  2.6879
  345EMI    H1" 6551   0.457   4.968   2.574  0.6283 -0.1535 -1.0990
  345EMI    C2" 6552   0.345   4.971   2.751 -0.1434 -0.8176 -0.4107
  345EMI    H2" 6553   0.347   4.862   2.747  1.0359  0.7824 -2.0806
  345EMI    H2" 6554   0.353   5.008   2.853 -0.1400 -2.9757  0.4773
  345EMI    H2" 6555   0.259   5.018   2.715  1.0685  0.6789  0.3885
  346EMI     N1 6556   4.572   1.749   2.111  0.8880 -0.0376  0.1668
  346EMI     C2 6557   4.608   1.718   1.982 -0.5542  0.2469 -0.2429
  346EMI     N3 6558   4.514   1.637   1.934 -0.3190 -0.1111 -0.2472
  346EMI     C4 6559   4.419   1.617   2.032 -0.6859  0.0152  0.2458
  346EMI     C5 6560   4.458   1.680   2.143  0.7389  0.5915 -0.7643
  346EMI     H2 6561   4.697   1.756   1.931  0.5848  0.9320  2.7595
  346EMI     H4 6562   4.339   1.551   2.018  3.4090  0.3097 -1.0278
  346EMI     H5 6563   4.410   1.671   2.244 -1.4267  0.2806 -2.8151
  346EMI    C1' 6564   4.494   1.590   1.795  0.8154 -0.8860  0.2469
  346EMI    H1' 6565   4.431   1.502   1.794 -0.9995  2.0159  0.9847
  346EMI    H1' 6566   4.448   1.665   1.738 -0.0246 -0.4881  0.0476
  346EMI    H1' 6567   4.594   1.569   1.754  1.5141  0.8366 -0.9302
  346EMI    C1" 6568   4.639   1.853   2.206  0.6444 -0.1114  0.1429
  346EMI    H1" 6569   4.744   1.837   2.213  0.3570  2.3293  0.2144
  346EMI    H1" 6570   4.599   1.840   2.305  0.4896  0.6734 -1.9766
  346EMI    C2" 6571   4.638   1.999   2.156  0.3706 -0.1239  0.2866
  346EMI    H2" 6572   4.544   2.022   2.114  1.3494  1.4421 -0.2914
  346EMI    H2" 6573   4.662   2.073   2.233 -0.7115  0.4446  2.4424
  346EMI    H2" 6574   4.720   2.013   2.087 -2.9558 -1.5582  2.4370
  347EMI     N1 6575   4.910   5.443   0.453  0.1667  0.4122 -0.0538
  347EMI     C2 6576   4.853   5.398   0.561 -0.4888  0.4092 -0.7784
  347EMI     N3 6577   4.735   5.452   0.576 -0.2295  0.0045  0.5502
  347EMI     C4 6578   4.710   5.522   0.463  0.0597  0.4697 -0.2253
  347EMI     C5 6579   4.819   5.522   0.383  0.0923 -0.0549 -0.3346
  347EMI     H2 6580   4.904   5.345   0.636  0.6809  2.5670  2.1883
  347EMI     H4 6581   4.619   5.572   0.451  0.1186  3.5121 -0.6320
  347EMI     H5 6582   4.834   5.578   0.293  1.2065  0.1799  1.5024
  347EMI    C1' 6583   4.651   5.457   0.692  1.0940 -0.0169 -0.7785
  347EMI    H1' 6584   4.667   5.373   0.758  1.5954  0.6008 -1.0334
  347EMI    H1' 6585   4.667   5.559   0.733  0.7843  0.8775  0.3537
  347EMI    H1' 6586   4.548   5.459   0.661  1.6590 -2.8397 -1.0799
  347EMI    C1" 6587   5.054   5.438   0.424 -0.1892  0.5670  0.5761
  347EMI    H1" 6588   5.110   5.428   0.521  0.9566  0.9984  2.2055
  347EMI    H1" 6589   5.082   5.536   0.387  0.1480 -1.6390  0.4539
  347EMI    C2" 6590   5.088   5.320   0.328 -0.0076  0.6983 -0.3846
  347EMI    H2" 6591   5.048   5.335   0.227  0.1426 -2.7544 -2.9291
  347EMI    H2" 6592   5.199   5.309   0.333 -0.8928  0.0633  0.9702
  347EMI    H2" 6593   5.043   5.229   0.360  3.0248  0.3087 -1.0741
  348EMI     N1 6594   0.394   3.133   5.273  0.1419  0.1299  0.1310
  348EMI     C2 6595   0.495   3.137   5.184  0.1007 -0.2071  0.8432
  348EMI     N3 6596   0.500   3.020   5.122  0.3965  0.4041 -1.0453
  348EMI     C4 6597   0.418   2.931   5.183 -0.1684  0.2757 -0.1595
  348EMI     C5 6598   0.352   3.000   5.274 -0.1705  0.2115 -0.6043
  348EMI     H2 6599   0.554   3.220   5.154  2.9554  0.7042  0.9744
  348EMI     H4 6600   0.407   2.819   5.167  2.2931 -1.4926 -0.6143
  348EMI     H5 6601   0.278   2.972   5.348  0.6275  0.4181 -1.0321
  348EMI    C1' 6602   0.604   2.988   5.019  0.5177  0.0516 -0.6779
  348EMI    H1' 6603   0.698   3.014   5.055  0.7642  0.1905 -0.7630
  348EMI    H1' 6604   0.593   2.881   4.985 -0.4098  0.0883 -2.4547
  348EMI    H1' 6605   0.595   3.063   4.934 -0.0024  0.2383  0.5888
  348EMI    C1" 6606   0.331   3.244   5.351 -0.4845 -0.0045 -0.4490
  348EMI    H1" 6607   0.411   3.295   5.395  0.6320 -0.8013  0.4797
  348EMI    H1" 6608   0.274   3.196   5.425 -0.4616  0.2329  2.0139
  348EMI    C2" 6609   0.262   3.335   5.256 -0.0670  0.5573 -0.2800
  348EMI    H2" 6610   0.202   3.403   5.316  0.8173 -2.0374  0.2735
  348EMI    H2" 6611   0.330   3.395   5.194 -0.0264 -0.7443  0.0345
  348EMI    H2" 6612   0.198   3.284   5.182  0.1663  0.2840  0.7803
  349EMI     N1 6613   1.035   3.544   0.571  0.2062 -0.3952  0.5312
  349EMI     C2 6614   0.978   3.665   0.543  0.1640  0.0492  0.3440
  349EMI     N3 6615   1.035   3.716   0.432 -0.2755 -0.1790  0.0078
  349EMI     C4 6616   1.140   3.631   0.394 -0.9430  0.0601 -0.3127
  349EMI     C5 6617   1.139   3.523   0.478  0.6015 -0.2109  0.7091
  349EMI     H2 6618   0.890   3.707   0.592 -0.6254 -2.4057 -0.1461
  349EMI     H4 6619   1.210   3.636   0.311  1.7789  0.3981 -0.1478
  349EMI     H5 6620   1.210   3.449   0.488 -0.5512  3.4475  0.9964
  349EMI    C1' 6621   1.008   3.828   0.337  0.2431  0.4775  1.1160
  349EMI    H1' 6622   0.928   3.894   0.377  1.3515 -0.6082 -3.1795
  349EMI    H1' 6623   1.099   3.887   0.307  1.3543  0.4619  0.2308
  349EMI    H1' 6624   0.967   3.788   0.249 -0.1591  2.0790  2.3267
  349EMI    C1" 6625   1.023   3.458   0.689 -0.2045 -0.0498 -0.7642
  349EMI    H1" 6626   1.110   3.400   0.709  0.7750  1.1271 -0.1836
  349EMI    H1" 6627   0.938   3.388   0.677  3.9480  1.3181 -2.3297
  349EMI    C2" 6628   0.993   3.541   0.817 -0.0367 -0.3458  0.5429
  349EMI    H2" 6629   0.891   3.563   0.822 -1.5297  2.7646 -2.1061
  349EMI    H2" 6630   1.021   3.483   0.901 -0.6725  1.1134 -0.5331
  349EMI    H2" 6631   1.056   3.627   0.813  1.0657  2.3286  2.0333
  350EMI     N1 6632   0.266   4.770   0.078  0.1729  0.0950  0.3481
  350EMI     C2 6633   0.352   4.694   0.147 -0.4141 -0.1495  0.4552
  350EMI     N3 6634   0.435   4.761   0.225 -0.6521  0.3556 -0.0318
  350EMI     C4 6635   0.395   4.891   0.214 -0.5875 -0.7589  0.0748
  350EMI     C5 6636   0.295   4.895   0.119 -0.2764 -0.0376  0.2785
  350EMI     H2 6637   0.338   4.585   0.149  1.7423 -0.1445 -3.2915
  350EMI     H4 6638   0.439   4.976   0.272  0.3786 -0.6110 -0.8055
  350EMI     H5 6639   0.242   4.992   0.094 -3.2050 -0.6893  1.2463
  350EMI    C1' 6640   0.537   4.706   0.320 -0.0866  0.2716 -0.7577
  350EMI    H1' 6641   0.624   4.759   0.294 -2.3822  2.0828  0.4020
  350EMI    H1' 6642   0.511   4.732   0.418 -0.1536  2.5762 -1.1630
  350EMI    H1' 6643   0.525   4.597   0.301 -0.1153 -0.9169 -1.3840
  350EMI    C1" 6644   0.149   4.745  -0.010  0.1818 -0.4549  0.7425
  350EMI    H1" 6645   0.090   4.838  -0.026  0.4934 -1.3904  1.5815
  350EMI    H1" 6646   0.089   4.679   0.050 -0.0892  0.2085 -1.9371
  350EMI    C2" 6647   0.173   4.671  -0.147 -0.0811  0.7957 -0.3013
  350EMI    H2" 6648   0.080   4.674  -0.205 -1.9865  3.2753 -0.6583
  350EMI    H2" 6649   0.257   4.709  -0.208  0.9020  1.1920 -0.7955
  350EMI    H2" 6650   0.181   4.563  -0.124 -1.8399  1.3381 -0.6927
  351EMI     N1 6651   3.718   3.934   2.321  0.0953  0.0703 -0.7047
  351EMI     C2 6652   3.666   4.001   2.222 -0.6552  0.4442 -0.1440
  351EMI     N3 6653   3.687   4.128   2.231 -0.4081 -0.2428 -0.3062
  351EMI     C4 6654   3.759   4.149   2.340 -0.1524  0.6558 -0.2096
  351EMI     C5 6655   3.777   4.032   2.401 -0.3534 -0.3584 -0.5988
  351EMI     H2 6656   3.599   3.953   2.148 -0.5291 -0.8839  1.7024
  351EMI     H4 6657   3.807   4.243   2.365  1.3434  2.4236  0.7286
  351EMI     H5 6658   3.835   4.022   2.495 -1.2213 -0.0574 -0.4417
  351EMI    C1' 6659   3.639   4.236   2.136 -0.2398  0.4662 -0.3175
  351EMI    H1' 6660   3.664   4.196   2.036 -3.0943  1.2622 -0.0206
  351EMI    H1' 6661   3.534   4.254   2.152  4.2179 -0.7312  0.5663
  351EMI    H1' 6662   3.689   4.333   2.166 -0.2771  2.3130  0.0445
  351EMI    C1" 6663   3.692   3.806   2.376 -0.1014  0.4110  0.1592
  351EMI    H1" 6664   3.719   3.800   2.477 -1.5073  1.0487 -2.3829
  351EMI    H1" 6665   3.751   3.735   2.332 -1.3337 -0.5121  1.7637
  351EMI    C2" 6666   3.555   3.759   2.361 -0.7628  0.0558 -0.1185
  351EMI    H2" 6667   3.489   3.841   2.387  1.7694  0.3742 -1.5660
  351EMI    H2" 6668   3.538   3.725   2.261 -1.2091  0.5866 -1.6275
  351EMI    H2" 6669   3.550   3.675   2.446 -1.3470 -2.2590  0.8865
  352EMI     N1 6670   1.809   0.115   6.189  0.1902 -0.2843  0.2931
  352EMI     C2 6671   1.915   0.051   6.146  0.1174 -0.4756  0.1277
  352EMI     N3 6672   1.913   0.060   6.012  0.1512 -0.3442  0.1160
  352EMI     C4 6673   1.802   0.135   5.975  0.9636  0.2139  0.1714
  352EMI     C5 6674   1.730   0.164   6.085  0.8578 -0.0575  0.0019
  352EMI     H2 6675   2.000   0.010   6.201  0.3408 -0.8913 -0.4191
  352EMI     H4 6676   1.780   0.167   5.872 -0.6094 -0.6774 -1.0154
  352EMI     H5 6677   1.642   0.218   6.083  0.8017 -0.9615 -2.0682
  352EMI    C1' 6678   2.019   0.028   5.922 -0.2414 -0.1188  0.1595
  352EMI    H1' 6679   2.005  -0.081   5.899 -2.4323  0.6133  1.3904
  352EMI    H1' 6680   2.016   0.083   5.829  0.9952  1.0927  0.1427
  352EMI    H1' 6681   2.114   0.046   5.972  2.4352  1.9870  1.1978
  352EMI    C1" 6682   1.778   0.149   6.330  0.4553  0.6261 -0.3356
  352EMI    H1" 6683   1.871   0.111   6.376 -0.0440 -1.8841 -0.6572
  352EMI    H1" 6684   1.703   0.082   6.380  2.2156 -1.6305 -0.8549
  352EMI    C2" 6685   1.754   0.299   6.353  1.0018  0.5076  0.1640
  352EMI    H2" 6686   1.814   0.329   6.438 -1.6237 -0.6965  2.0745
  352EMI    H2" 6687   1.787   0.354   6.262  0.4868 -1.2079 -0.7454
  352EMI    H2" 6688   1.644   0.324   6.359  0.4792  1.7339 -2.1115
  353EMI     N1 6689   1.498   4.708   0.692 -0.2651  0.1570  0.4144
  353EMI     C2 6690   1.584   4.790   0.756 -0.6122 -0.4857 -0.2646
  353EMI     N3 6691   1.709   4.732   0.768 -0.0818 -0.5908  0.0835
  353EMI     C4 6692   1.693   4.605   0.717  0.5152  0.2563 -0.2999
  353EMI     C5 6693   1.565   4.589   0.675 -0.0052 -0.5603  0.4649
  353EMI     H2 6694   1.550   4.892   0.777 -2.3508  0.6223  0.6040
  353EMI     H4 6695   1.773   4.533   0.722  0.7054  2.6356 -2.8761
  353EMI     H5 6696   1.512   4.502   0.640 -3.3987  0.3547  0.2947
  353EMI    C1' 6697   1.834   4.801   0.817  0.2853  0.2011  0.1568
  353EMI    H1' 6698   1.906   4.804   0.735  0.4836  0.9832 -0.9144
  353EMI    H1' 6699   1.812   4.906   0.859 -1.1931 -1.1867  1.6669
  353EMI    H1' 6700   1.889   4.744   0.893  2.2519  1.7135  1.1811
  353EMI    C1" 6701   1.352   4.717   0.671  0.1487  0.7637  0.3947
  353EMI    H1" 6702   1.322   4.632   0.627 -2.2698  2.3143  0.3216
  353EMI    H1" 6703   1.320   4.805   0.614  0.3935 -0.3030  1.9553
  353EMI    C2" 6704   1.272   4.708   0.800  0.2422 -0.6429  0.2402
  353EMI    H2" 6705   1.326   4.651   0.878 -2.4542 -2.3019  0.0820
  353EMI    H2" 6706   1.272   4.804   0.835  1.6811 -0.6093  0.6278
  353EMI    H2" 6707   1.169   4.668   0.787  0.5353 -4.0719  0.0702
  354EMI     N1 6708   2.164   6.037   0.561 -0.1037 -0.2456  0.3111
  354EMI     C2 6709   2.071   6.114   0.628 -0.1693 -1.0808 -0.5761
  354EMI     N3 6710   2.084   6.244   0.596  0.7498 -0.0495 -0.4398
  354EMI     C4 6711   2.174   6.247   0.493 -0.3345 -0.1092 -0.2218
  354EMI     C5 6712   2.226   6.128   0.483 -0.4902 -0.2837  0.2854
  354EMI     H2 6713   1.997   6.082   0.701  0.6193  1.1429 -0.3825
  354EMI     H4 6714   2.206   6.341   0.437  0.7791  2.9709 -0.5740
  354EMI     H5 6715   2.315   6.103   0.420  1.1138  1.0296 -0.9086
  354EMI    C1' 6716   1.999   6.364   0.626  0.5157 -0.1497  0.6159
  354EMI    H1' 6717   1.995   6.378   0.729  1.1251  2.7990 -0.2428
  354EMI    H1' 6718   2.036   6.453   0.575 -0.3721 -1.9517 -1.2694
  354EMI    H1' 6719   1.901   6.345   0.585  1.1955  3.0698  1.6813
  354EMI    C1" 6720   2.196   5.895   0.547  0.2923  0.3772 -0.7194
  354EMI    H1" 6721   2.297   5.890   0.531 -1.1595 -2.4139 -0.7953
  354EMI    H1" 6722   2.141   5.857   0.464 -2.2913  0.5345 -4.5075
  354EMI    C2" 6723   2.159   5.819   0.672 -0.6097 -0.1683 -0.2546
  354EMI    H2" 6724   2.184   5.712   0.668 -1.9966  1.0633 -0.6301
  354EMI    H2" 6725   2.206   5.860   0.759  1.3861 -0.6658  2.6800
  354EMI    H2" 6726   2.052   5.815   0.685  1.9609 -2.1314  1.6786
  355EMI     N1 6727   2.357   3.011   2.764 -0.0865 -0.0289  0.1207
  355EMI     C2 6728   2.321   2.906   2.683  0.1550 -0.0266  0.0813
  355EMI     N3 6729   2.194   2.871   2.714  0.5729 -0.7130  0.1189
  355EMI     C4 6730   2.143   2.969   2.799 -0.9541  0.1232  0.2029
  355EMI     C5 6731   2.247   3.041   2.839  0.7679  0.1418 -0.1764
  355EMI     H2 6732   2.369   2.867   2.596 -0.3472 -0.9007 -1.5022
  355EMI     H4 6733   2.046   2.975   2.841  1.8012  0.8777 -0.5370
  355EMI     H5 6734   2.251   3.117   2.913 -2.2443  2.5895  0.3289
  355EMI    C1' 6735   2.109   2.752   2.673  0.0818 -0.0339 -0.2613
  355EMI    H1' 6736   2.169   2.660   2.684 -0.8003  1.1171 -1.8909
  355EMI    H1' 6737   2.049   2.742   2.760 -0.2133 -2.4319  2.5005
  355EMI    H1' 6738   2.050   2.765   2.582 -0.4077 -0.9458  1.6971
  355EMI    C1" 6739   2.480   3.092   2.762 -0.0905  0.6960  0.0032
  355EMI    H1" 6740   2.458   3.189   2.801  0.5598 -1.1972  0.4336
  355EMI    H1" 6741   2.515   3.104   2.663  0.9601  0.0582  0.8666
  355EMI    C2" 6742   2.584   3.027   2.855  0.3120  0.1381  0.5802
  355EMI    H2" 6743   2.608   2.928   2.808  0.4307 -3.5271 -1.9909
  355EMI    H2" 6744   2.669   3.095   2.860  0.3019  0.6138 -2.1771
  355EMI    H2" 6745   2.533   3.027   2.948 -0.6102 -2.7130 -4.1839
  356EMI     N1 6746   1.229   5.205   1.957  0.7394 -0.6947  0.0236
  356EMI     C2 6747   1.164   5.092   1.934 -0.1019  0.2866  0.0370
  356EMI     N3 6748   1.208   4.990   2.005  0.3779  0.0971  0.8693
  356EMI     C4 6749   1.318   5.040   2.075  1.0134  0.0612  0.3995
  356EMI     C5 6750   1.330   5.171   2.046  0.0946  0.3298  0.1306
  356EMI     H2 6751   1.079   5.096   1.868  1.8372  0.4575 -0.6347
  356EMI     H4 6752   1.378   4.977   2.144 -3.7900 -0.1487  0.8912
  356EMI     H5 6753   1.405   5.231   2.096  0.5613  0.3160 -3.2890
  356EMI    C1' 6754   1.144   4.860   2.027 -0.0351 -0.3835  0.0865
  356EMI    H1' 6755   1.137   4.844   2.129  1.6071 -1.4229 -4.2718
  356EMI    H1' 6756   1.037   4.865   1.987 -1.3485 -0.7811 -1.3867
  356EMI    H1' 6757   1.189   4.782   1.977 -1.0574  2.0338 -2.8823
  356EMI    C1" 6758   1.207   5.346   1.905 -0.1031  0.0922 -0.5097
  356EMI    H1" 6759   1.307   5.373   1.874  1.6708  0.2917  0.4411
  356EMI    H1" 6760   1.162   5.406   1.975  2.2777 -1.9200  0.4978
  356EMI    C2" 6761   1.127   5.342   1.778  0.7121 -0.2239 -0.1735
  356EMI    H2" 6762   1.158   5.259   1.714 -0.3534  0.4016 -0.4079
  356EMI    H2" 6763   1.024   5.346   1.803  2.4996  1.8375 -0.3093
  356EMI    H2" 6764   1.149   5.439   1.728  0.5968  0.5284 -1.8629
  357EMI     N1 6765   1.788   3.629   0.680 -0.5227  0.4022  0.6699
  357EMI     C2 6766   1.706   3.703   0.602  0.2787  0.1461 -0.1312
  357EMI     N3 6767   1.606   3.622   0.561 -0.3839 -0.1710 -0.1274
  357EMI     C4 6768   1.628   3.495   0.607 -0.3238 -0.9892  0.2243
  357EMI     C5 6769   1.738   3.496   0.683  0.0793 -0.1912  0.2871
  357EMI     H2 6770   1.716   3.812   0.589 -3.3380  0.6471 -0.8805
  357EMI     H4 6771   1.576   3.405   0.589 -2.0210 -0.6685  0.9893
  357EMI     H5 6772   1.794   3.419   0.722  0.4565  1.1465  1.6789
  357EMI    C1' 6773   1.488   3.645   0.482  0.1613  0.2481  0.1923
  357EMI    H1' 6774   1.410   3.655   0.552  1.6588 -0.8576 -0.1495
  357EMI    H1' 6775   1.493   3.736   0.419  0.6521  2.0239  2.6363
  357EMI    H1' 6776   1.467   3.558   0.416  1.5006  2.4494 -0.2000
  357EMI    C1" 6777   1.888   3.679   0.774 -0.0130  0.0124 -0.1813
  357EMI    H1" 6778   1.840   3.660   0.871 -0.1320 -2.0521 -0.3613
  357EMI    H1" 6779   1.896   3.781   0.761  0.6394 -3.6313 -0.3182
  357EMI    C2" 6780   2.020   3.597   0.777  0.2128 -0.1409  0.2600
  357EMI    H2" 6781   1.999   3.490   0.798  1.9605 -1.5659 -1.9633
  357EMI    H2" 6782   2.061   3.610   0.674  2.0861 -0.2414 -1.6785
  357EMI    H2" 6783   2.094   3.639   0.844 -1.0464  1.8631 -0.9647
  358EMI     N1 6784   2.502   4.637   3.832 -0.0527 -0.6419 -0.6613
  358EMI     C2 6785   2.585   4.718   3.765  0.1240  0.0927  0.2924
  358EMI     N3 6786   2.642   4.652   3.664  0.0177  0.3807  0.2694
  358EMI     C4 6787   2.586   4.530   3.658 -0.2212  0.8150  0.8592
  358EMI     C5 6788   2.494   4.521   3.757 -0.8610 -0.3224 -0.6899
  358EMI     H2 6789   2.593   4.821   3.782 -1.4919 -1.4062 -0.1735
  358EMI     H4 6790   2.607   4.458   3.584  0.1084  1.6644  1.5940
  358EMI     H5 6791   2.425   4.443   3.777 -1.0753  0.3586 -0.1162
  358EMI    C1' 6792   2.753   4.696   3.575  0.5425 -0.6515  0.3512
  358EMI    H1' 6793   2.793   4.784   3.619 -1.6507  0.5197 -1.0627
  358EMI    H1' 6794   2.842   4.626   3.569  4.0415  0.1458 -1.3409
  358EMI    H1' 6795   2.719   4.711   3.471  2.7505  1.7820 -1.4943
  358EMI    C1" 6796   2.416   4.661   3.950 -0.4270 -0.4097 -0.4212
  358EMI    H1" 6797   2.456   4.612   4.041 -0.8819 -0.3566  0.2434
  358EMI    H1" 6798   2.316   4.623   3.933  0.5670  1.1485  1.5775
  358EMI    C2" 6799   2.392   4.811   3.980  0.2886 -0.0012 -0.6788
  358EMI    H2" 6800   2.489   4.846   4.029 -0.8704  0.5474 -1.2474
  358EMI    H2" 6801   2.366   4.871   3.885 -0.7163  1.8409  0.7624
  358EMI    H2" 6802   2.314   4.824   4.057  0.6097 -0.2457  2.6466
  359EMI     N1 6803   2.123   6.164   1.518  0.4091 -0.3962  0.5616
  359EMI     C2 6804   2.137   6.045   1.453  0.3562 -0.2093  0.6562
  359EMI     N3 6805   2.019   5.983   1.439 -0.1831  0.3391 -0.3923
  359EMI     C4 6806   1.924   6.062   1.500 -0.5647  0.3729 -0.0679
  359EMI     C5 6807   1.987   6.169   1.556 -0.4713  0.2044  0.2755
  359EMI     H2 6808   2.223   6.015   1.395 -2.9857  0.1377  1.9245
  359EMI     H4 6809   1.823   6.042   1.506  1.8161 -0.5398 -3.3556
  359EMI     H5 6810   1.937   6.247   1.606  0.9660 -0.3344 -4.1057
  359EMI    C1' 6811   1.979   5.871   1.363 -0.5060 -0.4360  0.3317
  359EMI    H1' 6812   1.982   5.790   1.427  0.3808 -0.6396  0.1939
  359EMI    H1' 6813   1.876   5.872   1.326 -1.7230 -1.1641 -1.9779
  359EMI    H1' 6814   2.039   5.853   1.276 -0.7761  0.0629  1.7264
  359EMI    C1" 6815   2.215   6.266   1.579 -0.2078  0.1842 -0.1985
  359EMI    H1" 6816   2.310   6.222   1.569 -0.8441  1.6896 -0.0139
  359EMI    H1" 6817   2.198   6.289   1.683  1.0969  1.7664  1.4762
  359EMI    C2" 6818   2.210   6.389   1.490  0.2858  0.4614 -0.3524
  359EMI    H2" 6819   2.293   6.454   1.510 -1.1657  3.5025 -1.3730
  359EMI    H2" 6820   2.231   6.353   1.388  1.2906  0.4154 -0.4387
  359EMI    H2" 6821   2.114   6.436   1.488 -1.4318 -0.9707 -3.0672
  360EMI     N1 6822   6.310   6.001   6.188  0.3189  0.1717 -0.1340
  360EMI     C2 6823   6.427   5.987   6.258  0.8412  0.0924 -1.4982
  360EMI     N3 6824   6.499   6.101   6.253  0.5438  1.0334  0.7284
  360EMI     C4 6825   6.421   6.189   6.186 -0.0074  0.2442  0.3986
  360EMI     C5 6826   6.310   6.130   6.136 -0.2605  0.0872  0.7379
  360EMI     H2 6827   6.469   5.890   6.294  1.3878 -1.3203  0.5976
  360EMI     H4 6828   6.442   6.287   6.161 -1.4387  1.1715 -0.3760
  360EMI     H5 6829   6.243   6.180   6.073  0.3051  0.9997  0.0661
  360EMI    C1' 6830   6.625   6.145   6.307 -0.9954  0.1800  0.0864
  360EMI    H1' 6831   6.717   6.091   6.265 -1.7730  1.8577 -1.8146
  360EMI    H1' 6832   6.647   6.250   6.278 -0.1978 -0.6402 -0.1181
  360EMI    H1' 6833   6.632   6.144   6.416 -1.0608 -0.1133  0.5359
  360EMI    C1" 6834   6.195   5.912   6.168  0.5463  0.3709  0.8374
  360EMI    H1" 6835   6.223   5.806   6.152 -2.2994 -0.7259  0.4886
  360EMI    H1" 6836   6.133   5.958   6.090  0.4880 -1.3812  3.0827
  360EMI    C2" 6837   6.100   5.910   6.288 -0.5541  0.0760 -0.0878
  360EMI    H2" 6838   6.031   5.822   6.287 -1.6787  0.6479 -2.4209
  360EMI    H2" 6839   6.163   5.912   6.378  2.4103  3.2145 -1.2614
  360EMI    H2" 6840   6.042   5.996   6.290  1.7253  1.0257 -0.3930
  361EMI     N1 6841   0.779   0.144   0.005 -0.1565 -0.1945 -0.2754
  361EMI     C2 6842   0.846   0.073   0.091  0.2242  0.3668 -0.8519
  361EMI     N3 6843   0.956   0.017   0.030 -0.2117  0.4412  0.2717
  361EMI     C4 6844   0.952   0.051  -0.102  0.4026  0.3893  0.1639
  361EMI     C5 6845   0.840   0.130  -0.122 -0.2692  0.3899  0.3074
  361EMI     H2 6846   0.818   0.081   0.191 -0.4845  1.0599 -0.5514
  361EMI     H4 6847   1.020   0.007  -0.179  1.0018 -0.9506 -1.7715
  361EMI     H5 6848   0.801   0.171  -0.215 -1.6800 -0.8837 -0.7283
  361EMI    C1' 6849   1.044  -0.087   0.086  0.1008  0.5686  0.3086
  361EMI    H1' 6850   1.012  -0.114   0.187  1.0576 -0.3910 -1.1860
  361EMI    H1' 6851   1.034  -0.177   0.027  0.6060 -0.1147 -2.5716
  361EMI    H1' 6852   1.147  -0.052   0.077  0.9080 -1.3731  0.2547
  361EMI    C1" 6853   0.681   0.248   0.028  0.2946 -0.0926 -0.3138
  361EMI    H1" 6854   0.704   0.318  -0.042  2.2328 -1.4896  1.1202
  361EMI    H1" 6855   0.693   0.283   0.124 -1.6279  2.6433 -2.2807
  361EMI    C2" 6856   0.540   0.198   0.012 -0.3998 -0.1124  0.3666
  361EMI    H2" 6857   0.511   0.137   0.105 -1.7126  0.2190  0.1720
  361EMI    H2" 6858   0.478   0.286   0.004 -0.3901 -2.0353  2.1065
  361EMI    H2" 6859   0.540   0.135  -0.083  0.8484 -0.4564 -1.0490
  362EMI     N1 6860   4.610   4.849   1.130 -0.2192 -0.1651  0.1811
  362EMI     C2 6861   4.568   4.950   1.055  0.0812 -0.5915  0.4864
  362EMI     N3 6862   4.619   4.947   0.932 -0.2789  0.5404 -0.4635
  362EMI     C4 6863   4.686   4.828   0.926 -0.5594 -0.1940  0.0687
  362EMI     C5 6864   4.686   4.769   1.048  1.0238 -0.1048 -0.3586
  362EMI     H2 6865   4.506   5.030   1.100 -1.5829 -0.8095 -0.9696
  362EMI     H4 6866   4.754   4.801   0.841 -0.5502 -0.2091 -3.6772
  362EMI     H5 6867   4.747   4.684   1.072 -1.3346  0.5935 -1.5410
  362EMI    C1' 6868   4.593   5.025   0.816  1.0950 -0.2480 -0.5231
  362EMI    H1' 6869   4.525   4.962   0.761 -4.4866 -0.3867 -0.2850
  362EMI    H1' 6870   4.543   5.113   0.852  0.5929 -2.5999 -0.2148
  362EMI    H1' 6871   4.687   5.049   0.765  1.0934 -2.1347 -0.9291
  362EMI    C1" 6872   4.606   4.827   1.279  0.0768  0.1069  0.0674
  362EMI    H1" 6873   4.667   4.906   1.318  0.5485  0.9585 -0.0632
  362EMI    H1" 6874   4.650   4.730   1.297  0.6526 -1.9781  1.7779
  362EMI    C2" 6875   4.464   4.830   1.327 -0.0248 -0.3678  0.2414
  362EMI    H2" 6876   4.428   4.932   1.292 -0.4135 -0.5534 -2.2281
  362EMI    H2" 6877   4.410   4.751   1.281  0.5123  0.4074  0.5057
  362EMI    H2" 6878   4.480   4.812   1.430  0.9020  0.0342 -0.8720
  363EMI     N1 6879   0.300   3.890   0.807  0.1826  0.5665  0.0231
  363EMI     C2 6880   0.345   4.015   0.833 -0.1524 -0.0775 -0.4422
  363EMI     N3 6881   0.248   4.096   0.877 -0.3619  0.7792 -0.0209
  363EMI     C4 6882   0.132   4.021   0.875 -0.4260 -0.3539  0.0830
  363EMI     C5 6883   0.165   3.897   0.841 -0.2546  0.1130 -0.2979
  363EMI     H2 6884   0.445   4.048   0.811 -0.4800  0.5274 -1.7620
  363EMI     H4 6885   0.040   4.070   0.908 -1.1279 -1.1037  1.1074
  363EMI     H5 6886   0.095   3.812   0.833 -1.0150 -1.1228 -1.0158
  363EMI    C1' 6887   0.252   4.232   0.928 -0.1164  0.0634  0.3200
  363EMI    H1' 6888   0.166   4.284   0.905 -1.2442  0.3753 -1.2851
  363EMI    H1' 6889   0.231   4.211   1.028  1.3200 -0.6978  0.8698
  363EMI    H1' 6890   0.347   4.280   0.925 -0.7911  0.3100  3.1846
  363EMI    C1" 6891   0.355   3.768   0.751 -0.1580  0.0475  0.4616
  363EMI    H1" 6892   0.446   3.794   0.701 -1.4592  1.4041 -2.7112
  363EMI    H1" 6893   0.274   3.735   0.690  1.4285 -0.0107  0.9984
  363EMI    C2" 6894   0.374   3.656   0.856  0.7577  0.3085  0.5118
  363EMI    H2" 6895   0.414   3.570   0.817  1.5877 -1.2797  2.7331
  363EMI    H2" 6896   0.443   3.674   0.940 -0.4529 -0.5622 -1.5499
  363EMI    H2" 6897   0.273   3.643   0.895 -1.0656 -0.9446  0.3685
  364EMI     N1 6898   5.999   5.110   6.008 -1.0100 -0.2786 -0.0336
  364EMI     C2 6899   6.053   4.991   5.973 -0.2466 -0.5202 -0.2992
  364EMI     N3 6900   6.156   4.956   6.057 -0.4860  0.1689  0.3373
  364EMI     C4 6901   6.167   5.064   6.145 -0.3131  0.1033 -0.4623
  364EMI     C5 6902   6.079   5.159   6.106  0.4139  0.0384 -0.1214
  364EMI     H2 6903   6.023   4.928   5.887  1.4832 -1.6910  0.2106
  364EMI     H4 6904   6.243   5.081   6.223  2.2286  1.9026 -0.5880
  364EMI     H5 6905   6.061   5.252   6.147 -1.2464 -1.5997 -0.4902
  364EMI    C1' 6906   6.225   4.827   6.073 -0.5750 -0.3544  0.2142
  364EMI    H1' 6907   6.159   4.744   6.055 -0.8136  3.3570  3.0862
  364EMI    H1' 6908   6.308   4.842   6.010  0.7811  2.9433  1.7284
  364EMI    H1' 6909   6.274   4.802   6.169  0.9221 -0.9919 -0.9267
  364EMI    C1" 6910   5.889   5.187   5.954 -0.1131 -0.8962  0.2380
  364EMI    H1" 6911   5.926   5.292   5.962  0.4954  2.0199  1.7210
  364EMI    H1" 6912   5.798   5.166   6.013 -2.9377  0.2410  1.4740
  364EMI    C2" 6913   5.866   5.170   5.803 -0.6163  0.7999  0.1781
  364EMI    H2" 6914   5.842   5.065   5.789  1.9354  1.5499 -0.7776
  364EMI    H2" 6915   5.796   5.238   5.777  0.7722 -0.6190 -0.6966
  364EMI    H2" 6916   5.959   5.203   5.756 -1.3835  0.8211 -0.1325
  365EMI     N1 6917   5.751   3.699   5.010 -0.4240  0.6557 -0.0837
  365EMI     C2 6918   5.647   3.609   5.005  0.2733 -0.3600  0.6864
  365EMI     N3 6919   5.529   3.662   4.965  0.3290 -0.6565 -0.2685
  365EMI     C4 6920   5.565   3.788   4.934  0.9068 -0.4559 -0.0962
  365EMI     C5 6921   5.695   3.817   4.956  0.3182  0.2314 -0.2878
  365EMI     H2 6922   5.656   3.506   5.032 -0.1508 -0.3196 -0.8674
  365EMI     H4 6923   5.499   3.860   4.888 -0.9253 -2.7701  1.5314
  365EMI     H5 6924   5.748   3.907   4.948 -0.9385 -0.8563  2.4809
  365EMI    C1' 6925   5.396   3.600   4.948  0.6162 -0.4475  0.1965
  365EMI    H1' 6926   5.330   3.643   5.025 -2.9936 -1.0731  1.3457
  365EMI    H1' 6927   5.359   3.623   4.847  0.9035  0.3970 -0.3366
  365EMI    H1' 6928   5.400   3.487   4.957  2.8421 -2.3930  1.9617
  365EMI    C1" 6929   5.887   3.694   5.078 -0.1081 -0.8884  0.0334
  365EMI    H1" 6930   5.898   3.775   5.150 -1.4331 -1.3657  1.2495
  365EMI    H1" 6931   5.970   3.700   5.001  0.5430 -2.0479  1.6746
  365EMI    C2" 6932   5.925   3.561   5.156 -0.4114 -0.5734 -0.5288
  365EMI    H2" 6933   5.935   3.481   5.092  0.4216  1.9619  0.1439
  365EMI    H2" 6934   6.016   3.587   5.214  0.0234  1.8596  0.2265
  365EMI    H2" 6935   5.859   3.548   5.242 -1.7119  0.2741 -0.9148
  366EMI     N1 6936   4.042   3.250   4.739 -0.0397 -0.8005 -0.2382
  366EMI     C2 6937   3.992   3.126   4.746 -0.1077 -0.8506  0.1497
  366EMI     N3 6938   4.044   3.060   4.852  0.0286  0.1192  0.2957
  366EMI     C4 6939   4.145   3.141   4.906  0.0864  0.3379 -0.4890
  366EMI     C5 6940   4.144   3.257   4.835  0.6180 -0.0497 -0.0831
  366EMI     H2 6941   3.905   3.089   4.703 -1.1438 -2.2196  1.3966
  366EMI     H4 6942   4.216   3.115   4.984  1.0615  3.9325 -1.3515
  366EMI     H5 6943   4.220   3.331   4.859  0.7088 -0.3147  1.4754
  366EMI    C1' 6944   3.997   2.938   4.914  0.0747 -0.0239  0.2251
  366EMI    H1' 6945   3.924   2.965   4.983 -0.2531 -0.4425 -1.5577
  366EMI    H1' 6946   3.942   2.879   4.840  1.4527 -1.9760 -0.1466
  366EMI    H1' 6947   4.081   2.882   4.953  0.0207 -2.0184  0.6124
  366EMI    C1" 6948   3.989   3.366   4.663  0.1070 -0.1575 -0.2053
  366EMI    H1" 6949   3.992   3.452   4.723  0.5182 -2.7333  0.0859
  366EMI    H1" 6950   3.893   3.349   4.626  3.5058 -0.0586 -2.3511
  366EMI    C2" 6951   4.072   3.389   4.543 -0.5369  0.2692 -0.2538
  366EMI    H2" 6952   4.043   3.484   4.497 -2.8817 -0.4185  1.4178
  366EMI    H2" 6953   4.177   3.387   4.581 -1.7953  0.0694 -1.1682
  366EMI    H2" 6954   4.060   3.302   4.474  1.1769 -0.5485  1.8107
  367EMI     N1 6955   5.581   0.758   4.368 -0.2346  0.0488 -0.5237
  367EMI     C2 6956   5.618   0.630   4.380 -0.2484  0.6501 -0.4524
  367EMI     N3 6957   5.645   0.604   4.509 -0.1265  0.0408 -0.1337
  367EMI     C4 6958   5.633   0.730   4.577 -0.2322  0.3340 -0.3994
  367EMI     C5 6959   5.595   0.822   4.491 -0.6196  0.2058  0.0175
  367EMI     H2 6960   5.633   0.567   4.293  1.1926 -0.6767  2.3289
  367EMI     H4 6961   5.654   0.746   4.685  0.2995  0.2665 -0.8319
  367EMI     H5 6962   5.575   0.925   4.529 -1.9934  0.5727 -1.6242
  367EMI    C1' 6963   5.690   0.482   4.581 -0.7648  0.2831  0.6056
  367EMI    H1' 6964   5.785   0.507   4.621  1.0816 -2.1655 -0.7252
  367EMI    H1' 6965   5.618   0.450   4.652 -0.9388  3.0359  1.9211
  367EMI    H1' 6966   5.696   0.401   4.509 -0.7580 -1.0624 -0.3093
  367EMI    C1" 6967   5.517   0.833   4.257 -0.7454  0.5691 -0.3773
  367EMI    H1" 6968   5.422   0.874   4.285 -0.6105 -0.3346  0.1626
  367EMI    H1" 6969   5.516   0.773   4.169  4.5065 -0.0948  0.3209
  367EMI    C2" 6970   5.605   0.952   4.222 -0.2254  0.3234  0.4107
  367EMI    H2" 6971   5.566   1.005   4.139  2.6803  2.0328  2.1852
  367EMI    H2" 6972   5.634   1.003   4.313 -1.1158  1.2865  0.6494
  367EMI    H2" 6973   5.697   0.915   4.183 -1.6637  2.8481 -0.3168
  368EMI     N1 6974   2.363   0.710   0.698  0.5012  0.1388 -0.1454
  368EMI     C2 6975   2.370   0.585   0.753 -0.7134  0.1364  0.4717
  368EMI     N3 6976   2.376   0.494   0.652 -0.0659 -0.3318  0.5002
  368EMI     C4 6977   2.371   0.553   0.532 -0.2201 -0.4193 -0.0896
  368EMI     C5 6978   2.360   0.686   0.560  0.2575  0.2984 -0.2823
  368EMI     H2 6979   2.387   0.566   0.860 -0.1382 -0.4757  0.0818
  368EMI     H4 6980   2.385   0.511   0.430  2.5977 -0.1384 -1.8087
  368EMI     H5 6981   2.358   0.769   0.484  0.2002  0.4401  1.1916
  368EMI    C1' 6982   2.393   0.354   0.672 -0.3645  0.0438  0.1789
  368EMI    H1' 6983   2.459   0.302   0.602 -1.2793  0.0168 -0.9675
  368EMI    H1' 6984   2.443   0.344   0.766 -2.1886 -2.5753  0.5988
  368EMI    H1' 6985   2.295   0.304   0.679  0.8570 -0.2173  0.2895
  368EMI    C1" 6986   2.360   0.834   0.765 -0.0621 -0.4412  0.5867
  368EMI    H1" 6987   2.295   0.819   0.849 -0.5464  0.7191 -0.4717
  368EMI    H1" 6988   2.320   0.913   0.699 -2.1137  2.1787 -1.3925
  368EMI    C2" 6989   2.505   0.861   0.802 -0.7005  0.3123  0.0739
  368EMI    H2" 6990   2.539   0.777   0.859  0.9561  0.1637 -0.5195
  368EMI    H2" 6991   2.566   0.872   0.706 -1.5759 -0.3727 -1.4127
  368EMI    H2" 6992   2.501   0.956   0.857  0.9082  0.6721 -0.4456
  369EMI     N1 6993   1.103   0.336   5.485 -0.5781  0.5766  0.0026
  369EMI     C2 6994   1.211   0.277   5.547 -0.3342 -0.3179 -0.0648
  369EMI     N3 6995   1.204   0.303   5.679 -0.1325  0.0358 -0.5381
  369EMI     C4 6996   1.100   0.389   5.700 -0.3124  0.0988  0.5285
  369EMI     C5 6997   1.035   0.405   5.581  0.2833 -0.4094  0.1246
  369EMI     H2 6998   1.274   0.205   5.507 -0.7618  0.7904  0.9961
  369EMI     H4 6999   1.072   0.427   5.797  1.1183  2.7772  0.2139
  369EMI     H5 7000   0.948   0.467   5.556  2.2008  1.3642 -0.8417
  369EMI    C1' 7001   1.289   0.241   5.787 -0.4693 -0.6825  0.2389
  369EMI    H1' 7002   1.268   0.134   5.794 -1.0510  2.3878  0.8031
  369EMI    H1' 7003   1.393   0.250   5.767 -2.4229 -1.1733 -2.8244
  369EMI    H1' 7004   1.267   0.282   5.882 -1.4944  0.6435  0.2888
  369EMI    C1" 7005   1.043   0.322   5.348  0.3925  0.4320 -0.5740
  369EMI    H1" 7006   0.933   0.345   5.357 -0.7996 -0.4473  2.8198
  369EMI    H1" 7007   1.054   0.218   5.315  1.9053 -1.5985 -0.2895
  369EMI    C2" 7008   1.117   0.415   5.253 -0.1428  0.2388 -0.8435
  369EMI    H2" 7009   1.215   0.371   5.253  2.7166  0.2443  0.9349
  369EMI    H2" 7010   1.079   0.400   5.144 -2.0770  1.0754 -1.3475
  369EMI    H2" 7011   1.124   0.518   5.278 -0.8352  2.5570  0.9580
  370EMI     N1 7012   4.713   1.252   2.302  0.1936 -0.4453 -0.3976
  370EMI     C2 7013   4.691   1.218   2.174  0.6220 -0.8734  0.8081
  370EMI     N3 7014   4.568   1.261   2.134 -0.1114 -0.2503 -0.1649
  370EMI     C4 7015   4.510   1.321   2.244  0.0061 -0.7248  0.1714
  370EMI     C5 7016   4.599   1.322   2.347  0.1699 -0.1346  1.1622
  370EMI     H2 7017   4.743   1.149   2.115 -0.7203  3.3274  2.2356
  370EMI     H4 7018   4.406   1.368   2.235 -2.0970 -1.1685 -0.9574
  370EMI     H5 7019   4.586   1.353   2.449 -0.7702 -0.2032 -1.5196
  370EMI    C1' 7020   4.500   1.251   2.005 -0.5842  0.5124 -0.1915
  370EMI    H1' 7021   4.569   1.297   1.927  0.2617  0.6503 -0.8712
  370EMI    H1' 7022   4.481   1.150   1.982 -1.0323 -1.0380  0.0282
  370EMI    H1' 7023   4.404   1.298   2.009  1.8439 -0.6460 -1.5621
  370EMI    C1" 7024   4.822   1.222   2.401 -0.4281  0.1778 -0.8070
  370EMI    H1" 7025   4.824   1.282   2.497  3.1427 -1.7030 -0.3406
  370EMI    H1" 7026   4.922   1.233   2.361  0.6852  0.3255 -3.0754
  370EMI    C2" 7027   4.793   1.074   2.443 -0.4381 -0.7434  0.5549
  370EMI    H2" 7028   4.871   1.037   2.511  1.0614 -0.3503 -2.8243
  370EMI    H2" 7029   4.701   1.074   2.493  1.6894 -0.3377 -0.0452
  370EMI    H2" 7030   4.791   1.017   2.352 -0.5053  1.8910 -2.2190
  371EMI     N1 7031   2.911   6.088   5.082  0.3514  0.1659  0.6849
  371EMI     C2 7032   2.913   6.154   4.962  0.1636  0.2344  0.4696
  371EMI     N3 7033   2.820   6.240   4.959 -0.1453 -0.2711  0.3681
  371EMI     C4 7034   2.759   6.248   5.080 -0.8532 -0.2294 -0.9620
  371EMI     C5 7035   2.806   6.148   5.157 -0.4823  1.0988 -0.2693
  371EMI     H2 7036   2.967   6.122   4.876 -0.6232 -0.8605  1.8248
  371EMI     H4 7037   2.678   6.307   5.112 -0.2674  3.0218 -1.1405
  371EMI     H5 7038   2.770   6.107   5.256  0.1168  0.9894  1.6776
  371EMI    C1' 7039   2.796   6.337   4.849 -0.4296 -0.0332 -0.1444
  371EMI    H1' 7040   2.871   6.413   4.859 -1.4044  1.7483 -2.2722
  371EMI    H1' 7041   2.816   6.284   4.754  0.6804  0.2631  1.4754
  371EMI    H1' 7042   2.697   6.386   4.853  0.9533  0.5570 -1.3345
  371EMI    C1" 7043   3.004   5.995   5.152 -0.5361  0.0120  0.6830
  371EMI    H1" 7044   2.971   5.891   5.126 -0.3600 -1.4772  0.6054
  371EMI    H1" 7045   2.982   6.014   5.252  0.9828  1.9057  0.7987
  371EMI    C2" 7046   3.152   6.016   5.115 -0.2917 -0.0776  0.4516
  371EMI    H2" 7047   3.167   6.002   5.008  0.4247 -2.2164 -1.8195
  371EMI    H2" 7048   3.172   6.120   5.143 -0.1356  0.0013  1.2611
  371EMI    H2" 7049   3.210   5.953   5.176 -1.2461  0.1178 -0.0833
  372EMI     N1 7050   2.750   0.850   1.708  0.1210 -0.2473 -0.0255
  372EMI     C2 7051   2.774   0.928   1.813 -0.0369  0.2673 -1.3968
  372EMI     N3 7052   2.824   0.853   1.912 -0.7088  0.2580 -0.2984
  372EMI     C4 7053   2.826   0.723   1.870 -0.2052  0.5592 -0.9391
  372EMI     C5 7054   2.787   0.721   1.741  0.2457  0.2630 -0.5461
  372EMI     H2 7055   2.786   1.029   1.814 -0.2678  0.5526  3.4936
  372EMI     H4 7056   2.849   0.629   1.934  0.2952 -1.4663  1.1604
  372EMI     H5 7057   2.762   0.633   1.679  2.0895 -2.8612 -1.5456
  372EMI    C1' 7058   2.874   0.889   2.043  0.3800  0.0373 -0.0654
  372EMI    H1' 7059   2.961   0.830   2.070 -2.6351 -0.0409  0.9701
  372EMI    H1' 7060   2.903   0.995   2.039  0.7745  0.3760  2.8308
  372EMI    H1' 7061   2.791   0.874   2.108  2.1314  0.5315 -0.4983
  372EMI    C1" 7062   2.695   0.879   1.571  0.0410 -0.0137  0.4035
  372EMI    H1" 7063   2.701   0.784   1.516  0.7111  0.6925 -0.1306
  372EMI    H1" 7064   2.764   0.951   1.513  1.3511 -0.4007 -3.1062
  372EMI    C2" 7065   2.556   0.938   1.585  0.1850  0.4106  0.3154
  372EMI    H2" 7066   2.560   1.032   1.652  3.2476  1.7758 -1.8618
  372EMI    H2" 7067   2.513   0.967   1.492 -0.4222 -0.9080  2.2181
  372EMI    H2" 7068   2.496   0.866   1.639  0.7670  2.4914 -0.7390
  373EMI     N1 7069   5.995   3.176   0.518 -0.1638 -0.0479 -0.1278
  373EMI     C2 7070   5.927   3.257   0.598 -0.0562  0.0184  0.3239
  373EMI     N3 7071   5.799   3.235   0.577  0.4928  0.4560 -0.6995
  373EMI     C4 7072   5.781   3.146   0.471  0.0211 -0.2052 -0.7965
  373EMI     C5 7073   5.906   3.111   0.438 -0.4445 -0.2623  0.3652
  373EMI     H2 7074   5.970   3.311   0.686  0.7268  2.3323 -1.1499
  373EMI     H4 7075   5.694   3.096   0.437  2.1293  1.4789  0.8629
  373EMI     H5 7076   5.931   3.043   0.360 -0.8168  0.8484 -0.5849
  373EMI    C1' 7077   5.692   3.254   0.675 -0.0181  0.4786 -0.1946
  373EMI    H1' 7078   5.613   3.313   0.631  2.0246 -0.2087  0.3989
  373EMI    H1' 7079   5.651   3.156   0.694 -0.0235  0.5777  0.5052
  373EMI    H1' 7080   5.727   3.296   0.767 -2.6644  4.1845  0.5348
  373EMI    C1" 7081   6.140   3.144   0.528 -0.6111 -0.6265  0.1205
  373EMI    H1" 7082   6.148   3.076   0.612 -0.3930  1.4443  0.0217
  373EMI    H1" 7083   6.196   3.238   0.544 -0.0481  0.1014 -0.4943
  373EMI    C2" 7084   6.201   3.071   0.401  0.5157  0.8354  0.2334
  373EMI    H2" 7085   6.303   3.043   0.423  0.0327  0.9655  0.8874
  373EMI    H2" 7086   6.154   2.971   0.379  0.0455 -0.9716 -2.2549
  373EMI    H2" 7087   6.197   3.140   0.318  1.2316 -0.1137  2.5087
  374EMI     N1 7088   3.161   5.255   5.848 -0.2294 -0.6044  0.0019
  374EMI     C2 7089   3.115   5.135   5.802 -0.8218 -0.5460  0.0688
  374EMI     N3 7090   3.016   5.151   5.711  0.4201 -0.0285  0.0852
  374EMI     C4 7091   2.998   5.287   5.692  0.3625 -0.1897  0.1790
  374EMI     C5 7092   3.083   5.351   5.783  0.1781  1.2702 -0.2365
  374EMI     H2 7093   3.155   5.033   5.836  0.1010 -1.8533  1.8728
  374EMI     H4 7094   2.941   5.333   5.612 -1.3900  2.3506  0.7323
  374EMI     H5 7095   3.107   5.454   5.783 -0.9920 -0.1965 -3.7103
  374EMI    C1' 7096   2.925   5.062   5.649  0.1251 -0.2421  0.7305
  374EMI    H1' 7097   2.845   5.115   5.605  0.1126  0.0558  1.8234
  374EMI    H1' 7098   2.965   5.006   5.561 -1.0218  0.9095  1.4702
  374EMI    H1' 7099   2.886   4.992   5.725 -2.3037  1.2104  1.7535
  374EMI    C1" 7100   3.292   5.290   5.920  0.4808  0.0261 -0.5589
  374EMI    H1" 7101   3.317   5.389   5.886 -1.2259 -1.6381  0.7334
  374EMI    H1" 7102   3.368   5.216   5.893  0.5311 -0.1740 -0.6991
  374EMI    C2" 7103   3.282   5.295   6.072 -0.3284 -0.4482 -0.7013
  374EMI    H2" 7104   3.217   5.373   6.109  0.0288  0.7388  1.9199
  374EMI    H2" 7105   3.241   5.205   6.117  2.9964 -0.5103 -0.1870
  374EMI    H2" 7106   3.383   5.315   6.112 -0.1949  0.0011 -2.2762
  375EMI     N1 7107   3.383   0.783   4.088 -1.0886 -1.2805  0.3397
  375EMI     C2 7108   3.357   0.712   3.979  0.1584 -0.5956  0.3042
  375EMI     N3 7109   3.255   0.632   4.004 -0.6436  0.6616  0.3721
  375EMI     C4 7110   3.213   0.651   4.130  0.1450 -0.6961  0.1002
  375EMI     C5 7111   3.293   0.744   4.184 -0.1617  0.1792  0.0578
  375EMI     H2 7112   3.416   0.725   3.888  0.4076 -0.8719  0.8030
  375EMI     H4 7113   3.133   0.598   4.172 -3.0060 -0.5108 -2.1099
  375EMI     H5 7114   3.286   0.773   4.294  1.3788  2.0837  2.6973
  375EMI    C1' 7115   3.203   0.524   3.919 -0.2071 -0.5478 -0.6903
  375EMI    H1' 7116   3.262   0.438   3.907  0.5576  2.2408 -3.7420
  375EMI    H1' 7117   3.107   0.487   3.955  3.1433 -2.7822  1.5068
  375EMI    H1' 7118   3.181   0.570   3.822  0.1723 -1.0905  1.7361
  375EMI    C1" 7119   3.484   0.894   4.099  0.1160 -0.0303 -0.1175
  375EMI    H1" 7120   3.536   0.916   4.004 -1.2104  0.3209 -2.7401
  375EMI    H1" 7121   3.549   0.863   4.175 -1.6065  2.0950 -1.4075
  375EMI    C2" 7122   3.428   1.022   4.155 -0.0749 -0.2046  0.1795
  375EMI    H2" 7123   3.503   1.102   4.175 -1.1918  0.4757 -0.4390
  375EMI    H2" 7124   3.355   1.055   4.088 -0.2226 -0.3785  0.2880
  375EMI    H2" 7125   3.373   1.005   4.251  1.1063 -1.3431  1.4646
  376EMI     N1 7126   4.340   3.388   3.990 -0.2034 -0.1898  0.2636
  376EMI     C2 7127   4.449   3.351   4.057  0.6639  0.1356 -0.6572
  376EMI     N3 7128   4.551   3.426   4.003 -0.7645 -0.3717 -0.3735
  376EMI     C4 7129   4.504   3.522   3.924  0.2738  0.2712 -0.2821
  376EMI     C5 7130   4.373   3.493   3.904  0.3760  0.2146 -0.6366
  376EMI     H2 7131   4.464   3.277   4.126  1.2946  1.4004 -0.1397
  376EMI     H4 7132   4.561   3.592   3.867 -0.2100  0.2900 -2.4174
  376EMI     H5 7133   4.309   3.547   3.836 -0.1104  1.8648  0.1311
  376EMI    C1' 7134   4.692   3.435   4.050  0.2280 -0.0366  0.0832
  376EMI    H1' 7135   4.743   3.393   3.965 -3.4839  1.0443 -1.0583
  376EMI    H1' 7136   4.731   3.532   4.079 -0.7802 -0.6714 -0.5168
  376EMI    H1' 7137   4.694   3.374   4.136  2.0365  1.4782  0.2126
  376EMI    C1" 7138   4.200   3.332   4.011 -0.1875 -0.2715 -0.3193
  376EMI    H1" 7139   4.207   3.229   4.047 -0.5282 -0.2688 -0.8495
  376EMI    H1" 7140   4.150   3.331   3.911 -1.0521 -1.7979  1.3694
  376EMI    C2" 7141   4.104   3.414   4.110 -0.0786 -0.1930 -0.7873
  376EMI    H2" 7142   4.171   3.447   4.192 -0.4244  3.7254 -1.1181
  376EMI    H2" 7143   4.060   3.501   4.066 -0.8184 -2.2149  2.4468
  376EMI    H2" 7144   4.037   3.346   4.152  0.1131 -2.0592  1.3848
  377EMI     N1 7145   1.509   0.962   2.016 -1.0761  0.3732 -0.9292
  377EMI     C2 7146   1.551   1.089   2.046  0.4499  0.6788 -0.1745
  377EMI     N3 7147   1.530   1.163   1.934  0.7146  0.1934  0.0813
  377EMI     C4 7148   1.473   1.087   1.837 -0.5710  0.3023 -0.6259
  377EMI     C5 7149   1.459   0.963   1.884 -0.8547 -0.1620 -0.5678
  377EMI     H2 7150   1.588   1.122   2.141  0.7582  2.6618  0.8721
  377EMI     H4 7151   1.453   1.122   1.745 -0.4439 -0.0005 -1.2909
  377EMI     H5 7152   1.427   0.876   1.829 -0.6443  0.5319  0.9905
  377EMI    C1' 7153   1.538   1.307   1.920 -0.3083 -0.2734 -0.2198
  377EMI    H1' 7154   1.444   1.343   1.931  2.2429 -0.7471 -2.7761
  377EMI    H1' 7155   1.594   1.348   2.005 -1.0053 -1.6219 -1.9141
  377EMI    H1' 7156   1.576   1.341   1.821  0.4923  1.4042 -0.4552
  377EMI    C1" 7157   1.507   0.842   2.108 -0.3693 -0.1792  0.1678
  377EMI    H1" 7158   1.605   0.824   2.153 -2.0515 -0.4596 -0.6062
  377EMI    H1" 7159   1.482   0.758   2.042 -1.2335 -0.1979 -0.9344
  377EMI    C2" 7160   1.400   0.871   2.218 -0.8109 -0.0696  0.3068
  377EMI    H2" 7161   1.301   0.877   2.182  1.3496 -2.0152  1.7013
  377EMI    H2" 7162   1.397   0.777   2.278 -1.2510 -0.6641  2.1282
  377EMI    H2" 7163   1.421   0.961   2.277 -3.1089 -0.2606 -1.4053
  378EMI     N1 7164   1.917   3.057   1.264  0.1461  0.1548 -0.2503
  378EMI     C2 7165   2.024   2.971   1.255 -0.3742  0.2065  0.1242
  378EMI     N3 7166   1.987   2.852   1.213 -0.5668  0.0012 -0.7470
  378EMI     C4 7167   1.847   2.848   1.221  0.2923  0.0015  0.2612
  378EMI     C5 7168   1.802   2.977   1.244 -0.2436 -0.0313  0.5089
  378EMI     H2 7169   2.128   2.999   1.280  1.6360  2.8129 -0.1663
  378EMI     H4 7170   1.784   2.763   1.199 -0.1243  0.0044  3.9826
  378EMI     H5 7171   1.693   3.007   1.258 -1.0282 -0.2897  1.3519
  378EMI    C1' 7172   2.062   2.730   1.188  0.1921 -0.5816 -0.1271
  378EMI    H1' 7173   2.049   2.665   1.270  3.2048 -1.1791 -0.9451
  378EMI    H1' 7174   2.025   2.684   1.089 -0.5649 -3.6097 -1.4910
  378EMI    H1' 7175   2.167   2.756   1.193  0.3022 -0.6413  1.3222
  378EMI    C1" 7176   1.922   3.199   1.312  0.7777 -0.7049  0.2064
  378EMI    H1" 7177   1.984   3.200   1.407 -0.6035 -0.8592  0.5706
  378EMI    H1" 7178   1.822   3.235   1.314  1.4307 -0.1393  0.2649
  378EMI    C2" 7179   1.991   3.296   1.213  0.0766  0.4454 -0.6455
  378EMI    H2" 7180   1.927   3.316   1.129  4.1020 -0.0278  0.8401
  378EMI    H2" 7181   2.006   3.396   1.258 -1.8555 -1.0113  0.6025
  378EMI    H2" 7182   2.089   3.257   1.175 -1.8212  2.7712 -1.6790
  379EMI     N1 7183   5.685   3.266   4.137  0.7711  0.3819  0.0206
  379EMI     C2 7184   5.628   3.387   4.150 -0.6380  0.2113  0.6842
  379EMI     N3 7185   5.547   3.389   4.252 -1.0852  0.3498 -0.4202
  379EMI     C4 7186   5.559   3.268   4.318 -0.0742  0.0404  0.0592
  379EMI     C5 7187   5.644   3.190   4.245 -0.3110  0.7644  0.0799
  379EMI     H2 7188   5.649   3.474   4.091  1.0362 -0.7824  0.3115
  379EMI     H4 7189   5.517   3.233   4.416  0.7334 -1.2945 -0.4250
  379EMI     H5 7190   5.675   3.092   4.276  2.6136  0.9699  4.5758
  379EMI    C1' 7191   5.487   3.505   4.318 -0.6506 -0.1836  0.2858
  379EMI    H1' 7192   5.539   3.536   4.407 -0.8330 -2.4864  2.2842
  379EMI    H1' 7193   5.474   3.593   4.251 -0.4391 -2.9753  1.1920
  379EMI    H1' 7194   5.390   3.475   4.352  0.7519  1.1141  0.7788
  379EMI    C1" 7195   5.769   3.204   4.035  0.6573 -0.0157  0.2328
  379EMI    H1" 7196   5.707   3.171   3.952 -0.0916  1.5567  1.5478
  379EMI    H1" 7197   5.835   3.128   4.082 -0.6822 -2.3141  0.4413
  379EMI    C2" 7198   5.867   3.310   3.989  1.0270 -1.2693 -0.0589
  379EMI    H2" 7199   5.947   3.264   3.933 -0.4757  1.6969  0.7436
  379EMI    H2" 7200   5.808   3.388   3.935 -0.9698  1.6422 -2.7912
  379EMI    H2" 7201   5.920   3.353   4.076  0.1167 -1.6498  0.3708
  380EMI     N1 7202   5.430   3.278   0.982 -0.1184  0.1164  0.5477
  380EMI     C2 7203   5.355   3.329   1.084  0.1686 -0.8277  0.0736
  380EMI     N3 7204   5.432   3.332   1.201  0.0710 -0.3614  0.1924
  380EMI     C4 7205   5.550   3.270   1.166 -0.2392  0.0514 -0.2839
  380EMI     C5 7206   5.554   3.240   1.035 -0.4929 -0.3922  0.1090
  380EMI     H2 7207   5.251   3.376   1.086 -1.9312 -0.4512  0.2850
  380EMI     H4 7208   5.629   3.262   1.237 -0.7100  2.6583 -0.9950
  380EMI     H5 7209   5.640   3.187   0.990 -1.1835 -1.0575  1.0918
  380EMI    C1' 7210   5.403   3.384   1.337 -0.0004 -0.5819  0.3107
  380EMI    H1' 7211   5.375   3.495   1.321  0.4388  4.2416  0.4532
  380EMI    H1' 7212   5.305   3.342   1.370 -0.1563  1.3278  0.2527
  380EMI    H1' 7213   5.488   3.382   1.399 -1.7993 -1.1447  1.0680
  380EMI    C1" 7214   5.390   3.270   0.838  0.5300 -0.1482 -0.7912
  380EMI    H1" 7215   5.460   3.202   0.788 -1.0975 -1.8927 -1.1808
  380EMI    H1" 7216   5.399   3.365   0.784  0.5381 -0.8288  1.9049
  380EMI    C2" 7217   5.245   3.216   0.823  0.2092  1.1966 -0.6087
  380EMI    H2" 7218   5.176   3.299   0.833 -0.6593 -0.3995  1.4841
  380EMI    H2" 7219   5.241   3.166   0.730  2.0650 -0.5124 -1.8394
  380EMI    H2" 7220   5.239   3.144   0.909  0.9308 -0.2045  2.1855
  381EMI     N1 7221   4.881   3.521   4.641 -0.4273  0.9421 -0.2604
  381EMI     C2 7222   4.794   3.610   4.699  0.3261  0.1757 -0.2820
  381EMI     N3 7223   4.858   3.697   4.774 -0.6576 -0.1472 -0.5553
  381EMI     C4 7224   4.991   3.670   4.773 -0.6192  0.3688 -0.1492
  381EMI     C5 7225   5.004   3.564   4.689 -0.4420 -0.2541 -0.2428
  381EMI     H2 7226   4.686   3.599   4.704 -2.6971 -1.3450 -0.3085
  381EMI     H4 7227   5.069   3.723   4.830  3.7514 -0.6785  2.2469
  381EMI     H5 7228   5.093   3.516   4.663 -0.6524  1.1361  1.7417
  381EMI    C1' 7229   4.802   3.795   4.866 -0.0403 -0.0039  0.3102
  381EMI    H1' 7230   4.869   3.795   4.957 -0.5393  0.6802  1.5095
  381EMI    H1' 7231   4.795   3.897   4.823 -0.9343  1.4048 -0.6198
  381EMI    H1' 7232   4.699   3.760   4.893  2.0822 -1.6883  1.8384
  381EMI    C1" 7233   4.852   3.405   4.555 -0.0289  0.2898  0.0470
  381EMI    H1" 7234   4.760   3.404   4.511  2.3645  0.4172  0.0827
  381EMI    H1" 7235   4.855   3.320   4.626 -1.6903 -0.6944  1.4098
  381EMI    C2" 7236   4.948   3.392   4.436  0.1039  0.4445  0.4778
  381EMI    H2" 7237   4.934   3.293   4.384 -0.7556 -0.9164  0.0620
  381EMI    H2" 7238   4.928   3.467   4.359 -3.8502  1.0555 -0.1545
  381EMI    H2" 7239   5.051   3.391   4.465  0.3450 -1.5417 -0.1251
  382EMI     N1 7240   3.147   3.786   1.043 -0.1810  0.1677  0.1751
  382EMI     C2 7241   3.192   3.770   1.168 -0.5444 -0.3825  0.1315
  382EMI     N3 7242   3.130   3.670   1.231 -0.5033  0.3692 -0.3513
  382EMI     C4 7243   3.031   3.626   1.143 -0.3096  1.2809  0.0916
  382EMI     C5 7244   3.053   3.690   1.025 -1.0747 -0.3123 -0.0019
  382EMI     H2 7245   3.270   3.830   1.216  4.4303  1.0444  0.7380
  382EMI     H4 7246   2.958   3.544   1.165  0.8185 -4.2172  1.8584
  382EMI     H5 7247   2.988   3.677   0.938 -0.1917  1.8884  0.0524
  382EMI    C1' 7248   3.170   3.619   1.361  0.1198  0.1765  0.1640
  382EMI    H1' 7249   3.190   3.708   1.423  0.0528 -0.0968  3.1026
  382EMI    H1' 7250   3.096   3.551   1.400  0.3759  1.8046 -0.6648
  382EMI    H1' 7251   3.259   3.562   1.336 -0.0982  0.1333 -1.1697
  382EMI    C1" 7252   3.170   3.896   0.947  0.2615  0.5105  1.0375
  382EMI    H1" 7253   3.074   3.930   0.907  0.6992 -0.3569  0.5560
  382EMI    H1" 7254   3.235   3.875   0.860 -0.6820 -1.1662 -0.3517
  382EMI    C2" 7255   3.232   4.014   1.022  0.3923  0.8885  0.1432
  382EMI    H2" 7256   3.334   3.999   1.045  0.2365 -1.1600 -0.6880
  382EMI    H2" 7257   3.227   4.100   0.959 -0.7490 -0.3725 -0.3096
  382EMI    H2" 7258   3.183   4.030   1.116 -0.1909 -2.2826  2.0706
  383EMI     N1 7259   2.700   0.141   6.176  0.8481  0.3776  0.3534
  383EMI     C2 7260   2.778   0.217   6.097 -0.4086  0.1316  1.0833
  383EMI     N3 7261   2.869   0.281   6.185  0.1544  0.0781 -0.7274
  383EMI     C4 7262   2.824   0.264   6.319 -0.6063 -0.4309  0.3439
  383EMI     C5 7263   2.725   0.179   6.306  0.4046  0.1606  0.7213
  383EMI     H2 7264   2.763   0.216   5.993 -1.5379  1.6120  1.5204
  383EMI     H4 7265   2.852   0.314   6.415 -0.8094  0.0072 -1.3776
  383EMI     H5 7266   2.669   0.157   6.401  1.4077  1.7306  1.8719
  383EMI    C1' 7267   2.970   0.380   6.158 -1.1871 -0.4558 -0.4790
  383EMI    H1' 7268   2.930   0.450   6.088  2.2821  0.9082 -0.8908
  383EMI    H1' 7269   2.997   0.443   6.235  2.1327  1.1435  0.1498
  383EMI    H1' 7270   3.064   0.334   6.126  1.9321  1.9975  1.5308
  383EMI    C1" 7271   2.590   0.055   6.131  0.2261 -0.2019 -0.2065
  383EMI    H1" 7272   2.581  -0.037   6.191 -1.5306  0.0561 -0.6961
  383EMI    H1" 7273   2.599   0.028   6.027  0.0019 -0.1221 -1.4218
  383EMI    C2" 7274   2.453   0.120   6.158 -0.5049  0.4525  0.2841
  383EMI    H2" 7275   2.437   0.201   6.088  1.2916  0.4317  0.2141
  383EMI    H2" 7276   2.361   0.056   6.150 -1.2187  0.7494  2.5798
  383EMI    H2" 7277   2.447   0.147   6.259 -2.2676 -1.0327 -3.7650
  384EMI     N1 7278   3.952   6.190   0.056  0.1642  0.0132  0.1353
  384EMI     C2 7279   3.953   6.121  -0.060  0.0985  0.4410  0.0335
  384EMI     N3 7280   3.840   6.055  -0.071  0.4489  0.9372  0.4375
  384EMI     C4 7281   3.759   6.093   0.031  0.3967  0.1571  0.6481
  384EMI     C5 7282   3.830   6.176   0.109 -0.0126 -0.1704  0.4389
  384EMI     H2 7283   4.031   6.097  -0.130  0.8719  0.8804  0.1942
  384EMI     H4 7284   3.654   6.073   0.053  0.5628 -0.6534  0.1703
  384EMI     H5 7285   3.781   6.229   0.196 -0.7207  1.4044  0.2476
  384EMI    C1' 7286   3.797   5.959  -0.170 -0.4291 -1.0791 -0.0014
  384EMI    H1' 7287   3.695   5.993  -0.191  0.5298 -0.2739  2.8208
  384EMI    H1' 7288   3.858   5.968  -0.260  1.4451 -2.0411  0.8588
  384EMI    H1' 7289   3.803   5.857  -0.134  0.9996 -0.3533  0.2925
  384EMI    C1" 7290   4.064   6.257   0.116 -0.7346 -0.5427 -0.1851
  384EMI    H1" 7291   4.055   6.245   0.225 -1.3373 -1.9027  0.3698
  384EMI    H1" 7292   4.051   6.362   0.089  0.3320 -1.5697  0.0946
  384EMI    C2" 7293   4.198   6.204   0.066  0.1331 -0.0607  0.6074
  384EMI    H2" 7294   4.219   6.250  -0.034 -0.3625 -0.5914 -2.6021
  384EMI    H2" 7295   4.282   6.235   0.132  3.8280 -1.1272  1.2575
  384EMI    H2" 7296   4.202   6.098   0.072  0.8391  0.3786 -0.7003
  385EMI     N1 7297   0.795   3.561   2.268 -0.3153 -0.3842  0.1708
  385EMI     C2 7298   0.752   3.522   2.144  0.3787  0.6261  0.4073
  385EMI     N3 7299   0.829   3.421   2.090  0.3021  0.2289 -0.0697
  385EMI     C4 7300   0.922   3.395   2.189  0.6447  0.0332  0.7566
  385EMI     C5 7301   0.905   3.478   2.294  0.0899  0.3722  0.0249
  385EMI     H2 7302   0.659   3.553   2.100  1.9258 -0.6437  2.4882
  385EMI     H4 7303   1.005   3.325   2.174 -0.5338  2.4832  1.0791
  385EMI     H5 7304   0.975   3.484   2.379  0.9077  1.4211 -1.2946
  385EMI    C1' 7305   0.827   3.346   1.967 -0.1439  0.1960  0.5148
  385EMI    H1' 7306   0.764   3.256   1.985 -0.7893  0.1451 -0.1538
  385EMI    H1' 7307   0.796   3.407   1.882  3.3846 -0.6909  0.3427
  385EMI    H1' 7308   0.922   3.310   1.948 -0.9370  0.1629  0.3755
  385EMI    C1" 7309   0.739   3.661   2.358 -0.3101 -0.1157  0.9879
  385EMI    H1" 7310   0.692   3.610   2.451  1.6940  0.2016  3.0266
  385EMI    H1" 7311   0.656   3.728   2.321  2.1479  0.8853  3.9658
  385EMI    C2" 7312   0.838   3.761   2.418  0.7285  0.2139 -0.0047
  385EMI    H2" 7313   0.784   3.843   2.463  2.2104  1.8119  4.2288
  385EMI    H2" 7314   0.899   3.716   2.492 -1.4893  2.8211 -2.4168
  385EMI    H2" 7315   0.892   3.805   2.338  0.5981  1.1337 -1.6802
  386EMI     N1 7316   3.934   3.632   3.213  0.2024 -0.4945  0.5717
  386EMI     C2 7317   3.858   3.728   3.144 -0.4836 -0.0057 -0.4729
  386EMI     N3 7318   3.729   3.733   3.185  0.5556 -0.3625  0.3709
  386EMI     C4 7319   3.718   3.641   3.287 -0.4300  0.2164  0.3258
  386EMI     C5 7320   3.839   3.580   3.298 -0.3825  0.6969  0.0814
  386EMI     H2 7321   3.896   3.814   3.094  0.2573 -0.9239 -1.5563
  386EMI     H4 7322   3.636   3.633   3.350  1.0922 -1.0963 -0.8842
  386EMI     H5 7323   3.851   3.514   3.377 -0.5866 -0.6101  0.3014
  386EMI    C1' 7324   3.622   3.833   3.156  0.7041  0.4020  0.0815
  386EMI    H1' 7325   3.651   3.877   3.066  0.6661 -1.4790  2.5075
  386EMI    H1' 7326   3.529   3.792   3.129 -0.0324 -0.9268 -0.3641
  386EMI    H1' 7327   3.596   3.902   3.240 -1.4836 -0.6855 -1.0432
  386EMI    C1" 7328   4.074   3.613   3.235  0.1716 -0.0260 -0.2590
  386EMI    H1" 7329   4.135   3.618   3.144  0.2733  1.9045  0.2726
  386EMI    H1" 7330   4.077   3.511   3.281 -1.5417  1.1510  2.9598
  386EMI    C2" 7331   4.139   3.714   3.330  0.1002  0.0603 -0.2168
  386EMI    H2" 7332   4.243   3.678   3.348  1.2055  0.4768 -3.0780
  386EMI    H2" 7333   4.142   3.801   3.272  1.3345 -0.9159  0.8146
  386EMI    H2" 7334   4.083   3.722   3.427  1.6230  0.0688 -1.8844
  387EMI     N1 7335   2.342   5.757   0.227 -0.2222 -0.8336  0.3937
  387EMI     C2 7336   2.208   5.785   0.206 -0.2299 -0.0850 -0.6889
  387EMI     N3 7337   2.191   5.910   0.163 -0.8680  0.6418  0.7237
  387EMI     C4 7338   2.319   5.966   0.158  0.5997 -0.3108 -0.2498
  387EMI     C5 7339   2.411   5.874   0.200  0.8297  0.4510  0.1577
  387EMI     H2 7340   2.127   5.715   0.226 -0.7471  1.2970 -0.7907
  387EMI     H4 7341   2.350   6.069   0.130 -0.2544  0.5584 -0.4301
  387EMI     H5 7342   2.515   5.899   0.210 -0.3230 -2.2031 -1.9943
  387EMI    C1' 7343   2.068   5.981   0.131 -0.4286  0.2076 -0.4544
  387EMI    H1' 7344   2.071   6.018   0.032 -0.3476 -0.0989  2.2274
  387EMI    H1' 7345   1.983   5.905   0.134 -0.5155 -0.3338 -0.4687
  387EMI    H1' 7346   2.061   6.057   0.205  1.1396  0.8583  1.3707
  387EMI    C1" 7347   2.410   5.638   0.274  0.9942  0.8797  0.5313
  387EMI    H1" 7348   2.517   5.647   0.272  1.6816  2.9778 -0.7467
  387EMI    H1" 7349   2.379   5.561   0.208 -0.2494  2.1347  1.9463
  387EMI    C2" 7350   2.369   5.598   0.415  0.2743 -0.6469  0.5674
  387EMI    H2" 7351   2.408   5.506   0.435  0.7946 -0.1839 -1.5142
  387EMI    H2" 7352   2.391   5.678   0.490  1.7152  0.9904  1.3009
  387EMI    H2" 7353   2.259   5.586   0.413  2.1442  0.1627 -0.7932
  388EMI     N1 7354   2.115   1.504   5.609 -0.5101 -0.7659  0.2794
  388EMI     C2 7355   2.083   1.513   5.740 -0.8125 -0.4283  0.2306
  388EMI     N3 7356   2.080   1.393   5.806  0.2048  0.8244 -0.3450
  388EMI     C4 7357   2.117   1.302   5.707 -0.0896  0.1520 -0.4576
  388EMI     C5 7358   2.141   1.372   5.589  0.2314 -0.0276  0.6949
  388EMI     H2 7359   2.053   1.608   5.780 -1.5230 -2.4108  1.2261
  388EMI     H4 7360   2.133   1.196   5.715  0.8486 -0.5339 -1.4029
  388EMI     H5 7361   2.171   1.330   5.492 -2.1713  0.7741 -0.2279
  388EMI    C1' 7362   2.066   1.367   5.952 -0.0549  0.8394 -0.3099
  388EMI    H1' 7363   1.964   1.354   5.991  0.1789  1.8687 -0.3048
  388EMI    H1' 7364   2.125   1.280   5.979 -1.0694 -1.6124 -0.8955
  388EMI    H1' 7365   2.093   1.453   6.006  0.8146 -1.0937  0.5357
  388EMI    C1" 7366   2.126   1.614   5.512  0.5569  0.5140 -0.3975
  388EMI    H1" 7367   2.050   1.686   5.529  0.5200  0.3176 -3.5995
  388EMI    H1" 7368   2.123   1.568   5.419 -1.3599  0.3071 -0.7617
  388EMI    C2" 7369   2.257   1.682   5.527  0.6963 -0.1224  0.1098
  388EMI    H2" 7370   2.261   1.733   5.624 -0.5647 -2.0658  1.2313
  388EMI    H2" 7371   2.332   1.610   5.524 -0.8275 -1.4086 -0.4240
  388EMI    H2" 7372   2.273   1.755   5.454  0.6222 -2.7746  0.0375
  389EMI     N1 7373   0.979   0.892   1.927 -0.6409 -0.2955  0.2523
  389EMI     C2 7374   0.873   0.815   1.953  0.1737 -0.3182 -0.3088
  389EMI     N3 7375   0.887   0.692   1.907  0.0332 -0.0154 -0.1240
  389EMI     C4 7376   1.018   0.691   1.851  0.6282  0.4410 -0.1740
  389EMI     C5 7377   1.070   0.813   1.857  0.8016 -0.8738 -0.2282
  389EMI     H2 7378   0.787   0.865   1.992 -0.5249 -0.8667 -1.6011
  389EMI     H4 7379   1.068   0.608   1.811 -0.9034  2.9762  3.1983
  389EMI     H5 7380   1.164   0.838   1.815 -2.0292  0.9986  0.7322
  389EMI    C1' 7381   0.805   0.567   1.925 -0.0340 -0.2403  0.2773
  389EMI    H1' 7382   0.820   0.532   2.033 -0.2134 -2.1734  1.7527
  389EMI    H1' 7383   0.704   0.578   1.897  0.7633 -0.4549 -2.7932
  389EMI    H1' 7384   0.843   0.490   1.849  2.1132 -2.9973 -1.1910
  389EMI    C1" 7385   1.008   1.037   1.947 -1.1362 -0.3356 -0.5017
  389EMI    H1" 7386   0.997   1.083   1.846  1.3545 -0.3439  0.0990
  389EMI    H1" 7387   1.110   1.051   1.990  0.8018  0.1881 -2.0418
  389EMI    C2" 7388   0.926   1.102   2.057  0.2261  0.7252  0.1239
  389EMI    H2" 7389   0.829   1.046   2.088 -2.3183 -0.0608  1.9370
  389EMI    H2" 7390   0.992   1.101   2.148  1.9718  0.2050  1.4003
  389EMI    H2" 7391   0.897   1.208   2.037 -1.4916  1.2320  0.3149
  390EMI     N1 7392   2.994   5.077   3.177 -0.1593 -0.3233 -0.1451
  390EMI     C2 7393   3.114   5.071   3.126 -0.7892 -0.0051 -0.5950
  390EMI     N3 7394   3.201   5.150   3.192  0.1899  0.2995 -0.4028
  390EMI     C4 7395   3.135   5.210   3.291  0.0143 -0.0007 -0.0369
  390EMI     C5 7396   3.011   5.163   3.283  0.8118  0.3970  0.3310
  390EMI     H2 7397   3.152   4.987   3.061  0.7428 -0.3957 -2.0750
  390EMI     H4 7398   3.167   5.274   3.367 -2.1743 -1.3460 -2.7265
  390EMI     H5 7399   2.925   5.193   3.348 -0.5792  4.0892  0.9501
  390EMI    C1' 7400   3.348   5.136   3.205 -0.0892  0.1119  0.3050
  390EMI    H1' 7401   3.391   5.125   3.107 -1.8133  0.0017  0.4742
  390EMI    H1' 7402   3.390   5.226   3.256  0.2273  3.1140 -2.1189
  390EMI    H1' 7403   3.368   5.035   3.241  0.5732  0.3113  0.4269
  390EMI    C1" 7404   2.878   5.000   3.134 -0.4747  0.0313  0.4469
  390EMI    H1" 7405   2.885   5.001   3.025  1.1649 -0.7702 -0.9303
  390EMI    H1" 7406   2.784   5.043   3.163  0.9693 -0.5150  1.8662
  390EMI    C2" 7407   2.877   4.859   3.194 -0.5540 -0.5524  0.6026
  390EMI    H2" 7408   2.797   4.794   3.161  3.6432 -1.9101  2.2179
  390EMI    H2" 7409   2.982   4.820   3.183  1.8175  1.8712  0.2355
  390EMI    H2" 7410   2.862   4.873   3.295 -0.3074  1.5633 -2.8513
  391EMI     N1 7411   0.750   0.310   4.209  0.2910 -0.0712 -0.0693
  391EMI     C2 7412   0.822   0.246   4.298 -0.2090  0.0335  0.5930
  391EMI     N3 7413   0.930   0.309   4.336 -0.1845  0.4127  0.3152
  391EMI     C4 7414   0.915   0.437   4.281 -0.0938  0.3725  0.0046
  391EMI     C5 7415   0.813   0.432   4.198 -0.4683 -0.0886 -0.0368
  391EMI     H2 7416   0.800   0.156   4.345 -0.0757 -2.4751  1.2922
  391EMI     H4 7417   0.975   0.528   4.288 -1.1688  0.7869 -2.4405
  391EMI     H5 7418   0.780   0.506   4.128 -0.0423 -0.0511 -0.9254
  391EMI    C1' 7419   1.042   0.279   4.425 -0.8538  0.5126 -0.5333
  391EMI    H1' 7420   1.089   0.370   4.469  1.6331 -1.0918  2.3637
  391EMI    H1' 7421   1.007   0.226   4.510  1.2990  1.6399  1.8256
  391EMI    H1' 7422   1.117   0.212   4.382 -0.7886  0.3066 -0.9694
  391EMI    C1" 7423   0.606   0.295   4.162  0.2002 -0.5837 -0.2171
  391EMI    H1" 7424   0.560   0.405   4.162 -0.3688  1.4357 -1.5391
  391EMI    H1" 7425   0.556   0.235   4.237 -3.0987 -1.8989  0.7447
  391EMI    C2" 7426   0.610   0.221   4.026 -0.3300 -0.5137 -0.0469
  391EMI    H2" 7427   0.516   0.241   3.964 -1.2574 -1.5404  0.1739
  391EMI    H2" 7428   0.687   0.270   3.965 -0.0001 -1.3634  0.1111
  391EMI    H2" 7429   0.618   0.116   4.044  1.4367  2.9015  1.0530
  392EMI     N1 7430   2.805   5.071   6.173 -0.1303  0.2402 -0.0277
  392EMI     C2 7431   2.847   5.149   6.280 -0.0686 -0.3828 -0.4976
  392EMI     N3 7432   2.927   5.242   6.235 -0.5913 -0.3479 -0.1791
  392EMI     C4 7433   2.934   5.233   6.097 -0.0535  0.4739 -0.4851
  392EMI     C5 7434   2.856   5.128   6.063  0.3639  0.8140  0.2015
  392EMI     H2 7435   2.826   5.140   6.387  1.0625  2.3750  2.1727
  392EMI     H4 7436   2.985   5.303   6.035  0.0402 -1.3410  4.3133
  392EMI     H5 7437   2.828   5.090   5.970 -0.8545 -1.1049  0.3489
  392EMI    C1' 7438   2.982   5.362   6.307 -0.2336  0.2024 -0.4345
  392EMI    H1' 7439   2.947   5.448   6.262  1.4311 -0.2941  1.0029
  392EMI    H1' 7440   2.951   5.368   6.409  0.0837 -0.3413 -1.0735
  392EMI    H1' 7441   3.094   5.350   6.296 -0.2656 -1.2266 -2.6452
  392EMI    C1" 7442   2.716   4.946   6.170 -0.0635 -0.8372  0.8687
  392EMI    H1" 7443   2.673   4.924   6.074 -0.9344 -1.1476  1.9894
  392EMI    H1" 7444   2.642   4.959   6.248 -0.9400  0.5116  0.5139
  392EMI    C2" 7445   2.799   4.825   6.201  0.1331 -0.0869 -0.2841
  392EMI    H2" 7446   2.868   4.801   6.122 -1.6462  1.1188 -0.0102
  392EMI    H2" 7447   2.852   4.846   6.292 -2.9913 -1.2032 -0.5791
  392EMI    H2" 7448   2.738   4.737   6.216  2.7798 -0.2502 -1.7762
  393EMI     N1 7449   3.882   0.178   3.455 -0.4562 -0.1356 -0.4056
  393EMI     C2 7450   3.792   0.191   3.559  0.1341 -0.4290  0.2581
  393EMI     N3 7451   3.854   0.254   3.666  0.1141  0.1574 -0.1019
  393EMI     C4 7452   3.980   0.288   3.625  0.1055 -0.1547 -0.1441
  393EMI     C5 7453   3.997   0.244   3.493 -0.1609 -0.7701 -0.2031
  393EMI     H2 7454   3.687   0.163   3.555 -1.1127  3.1689 -0.7985
  393EMI     H4 7455   4.045   0.347   3.685 -1.9884  0.9155  1.9571
  393EMI     H5 7456   4.087   0.249   3.431 -1.0997  0.0788 -1.0199
  393EMI    C1' 7457   3.790   0.294   3.792 -0.3588  0.6724  0.1247
  393EMI    H1' 7458   3.714   0.369   3.782  0.1716 -1.9906  1.0217
  393EMI    H1' 7459   3.730   0.210   3.824 -1.4910 -0.1348 -0.3962
  393EMI    H1' 7460   3.861   0.327   3.872  0.5037  3.2384  0.1191
  393EMI    C1" 7461   3.867   0.111   3.322 -0.5340 -0.5573  0.3514
  393EMI    H1" 7462   3.815   0.019   3.342 -0.3143  0.0326  1.2673
  393EMI    H1" 7463   3.966   0.084   3.284 -2.4683 -1.0025  0.5016
  393EMI    C2" 7464   3.806   0.201   3.217  1.1931 -0.4337 -0.0265
  393EMI    H2" 7465   3.877   0.283   3.197  3.2836 -1.0086 -1.3158
  393EMI    H2" 7466   3.785   0.148   3.126  1.9613  1.1116  2.1923
  393EMI    H2" 7467   3.721   0.249   3.258 -0.7929 -1.4633 -0.2696
  394EMI     N1 7468   0.991   5.332   0.418 -0.0880 -0.0236 -0.3976
  394EMI     C2 7469   0.940   5.233   0.343 -0.7628  0.5444 -0.1403
  394EMI     N3 7470   1.020   5.125   0.349  0.0388  0.3920  0.0458
  394EMI     C4 7471   1.123   5.153   0.438  0.3891  0.1317 -0.0642
  394EMI     C5 7472   1.104   5.280   0.477 -0.1646  0.6522 -0.3831
  394EMI     H2 7473   0.848   5.229   0.286  1.5116  1.1848 -2.0861
  394EMI     H4 7474   1.194   5.080   0.469  2.5099 -0.1686  2.5263
  394EMI     H5 7475   1.168   5.329   0.544  0.9901 -1.7648  0.1434
  394EMI    C1' 7476   0.997   4.995   0.283 -0.1371  0.1604 -1.1004
  394EMI    H1' 7477   1.035   5.011   0.183  1.0526  0.5585 -0.9108
  394EMI    H1' 7478   1.059   4.915   0.331 -0.6180 -0.4954 -1.4723
  394EMI    H1' 7479   0.891   4.963   0.279 -2.4110  1.7588  0.9732
  394EMI    C1" 7480   0.947   5.471   0.433  0.4355 -1.1390  0.0680
  394EMI    H1" 7481   1.022   5.519   0.500  0.9038 -0.3893 -0.1903
  394EMI    H1" 7482   0.837   5.467   0.467 -1.7404 -2.2349 -0.4252
  394EMI    C2" 7483   0.958   5.542   0.302  0.1745 -0.7479 -0.1079
  394EMI    H2" 7484   0.901   5.497   0.219  0.2497  1.7647 -0.6991
  394EMI    H2" 7485   0.898   5.638   0.310 -1.4821  1.0882 -1.3314
  394EMI    H2" 7486   1.060   5.557   0.271  0.3753 -0.2006 -2.0146
  395EMI     N1 7487   2.856   1.909   4.190 -0.2656 -0.5651 -0.1941
  395EMI     C2 7488   2.924   1.991   4.273 -0.1551 -0.3397  0.5532
  395EMI     N3 7489   3.052   1.996   4.233  0.2121 -0.6084 -0.2974
  395EMI     C4 7490   3.068   1.915   4.126 -0.2912  0.4544 -0.1969
  395EMI     C5 7491   2.949   1.857   4.100  0.2876 -0.5762  0.4595
  395EMI     H2 7492   2.883   2.048   4.351 -2.8871  1.0404  1.5240
  395EMI     H4 7493   3.158   1.909   4.070 -0.3402  0.4063  1.5462
  395EMI     H5 7494   2.911   1.800   4.011 -0.2677 -0.1125  1.4697
  395EMI    C1' 7495   3.167   2.069   4.286  0.9935  0.6180 -0.0972
  395EMI    H1' 7496   3.125   2.156   4.348 -0.6809 -0.6813  1.9051
  395EMI    H1' 7497   3.224   1.999   4.351 -0.6715 -0.2296  1.9847
  395EMI    H1' 7498   3.237   2.102   4.203  0.5768  1.3673  2.0393
  395EMI    C1" 7499   2.714   1.862   4.209 -0.3807 -1.0842 -0.0964
  395EMI    H1" 7500   2.670   1.851   4.112 -1.3905 -2.2094  0.4408
  395EMI    H1" 7501   2.652   1.935   4.263 -0.7157  0.2731 -4.1300
  395EMI    C2" 7502   2.692   1.725   4.278 -0.2543 -0.4041  0.4565
  395EMI    H2" 7503   2.589   1.698   4.287  1.2741  1.2796  1.6534
  395EMI    H2" 7504   2.757   1.654   4.225 -0.3171  0.7477 -0.9768
  395EMI    H2" 7505   2.736   1.733   4.375 -0.1426 -0.4613 -2.6372
  396EMI     N1 7506   6.310   2.048   2.940  0.5250 -0.5013 -0.9065
  396EMI     C2 7507   6.245   1.931   2.945  0.8458  0.8194  0.7004
  396EMI     N3 7508   6.133   1.948   3.015  0.4894  0.2220 -0.4766
  396EMI     C4 7509   6.128   2.078   3.065  0.6295  0.6433  0.2055
  396EMI     C5 7510   6.238   2.143   3.016  0.0157  0.1818  0.1407
  396EMI     H2 7511   6.277   1.831   2.919 -0.1371 -2.9193 -1.4020
  396EMI     H4 7512   6.059   2.117   3.136  1.6253  0.4341 -2.0820
  396EMI     H5 7513   6.272   2.241   3.026 -2.9505  0.6150 -2.0230
  396EMI    C1' 7514   6.033   1.852   3.058 -0.2031  0.2664 -0.0624
  396EMI    H1' 7515   6.017   1.769   2.982  1.7293  2.0523 -2.4733
  396EMI    H1' 7516   6.058   1.815   3.153  0.8324  2.1866  0.9172
  396EMI    H1' 7517   5.944   1.916   3.068  0.8504  1.9656  0.5129
  396EMI    C1" 7518   6.443   2.075   2.872  0.8267  0.8456 -0.4876
  396EMI    H1" 7519   6.490   1.980   2.875  0.7751 -2.3936  4.9616
  396EMI    H1" 7520   6.500   2.144   2.936 -0.4338 -1.7571 -0.6749
  396EMI    C2" 7521   6.421   2.123   2.732 -0.7421 -0.6747  0.8932
  396EMI    H2" 7522   6.511   2.162   2.685  1.0161  0.2266  0.3512
  396EMI    H2" 7523   6.360   2.052   2.666  0.4525  1.1955  0.2697
  396EMI    H2" 7524   6.375   2.214   2.739  1.5482  1.0841  0.2182
  397EMI     N1 7525   0.510   5.660   3.649  0.4201 -0.1264  0.1596
  397EMI     C2 7526   0.609   5.698   3.570 -0.2974  0.3226  0.4426
  397EMI     N3 7527   0.624   5.605   3.470  0.3661 -0.1174 -0.1338
  397EMI     C4 7528   0.523   5.511   3.489  0.1937 -0.4587  0.1725
  397EMI     C5 7529   0.447   5.550   3.594 -0.0310  0.0195  0.7023
  397EMI     H2 7530   0.678   5.778   3.590 -1.3082 -2.1891 -1.7872
  397EMI     H4 7531   0.492   5.430   3.424  0.0100 -1.7135 -1.8105
  397EMI     H5 7532   0.359   5.513   3.646  0.2321 -0.3377 -0.0210
  397EMI    C1' 7533   0.726   5.607   3.365  0.7533  0.2559 -0.4464
  397EMI    H1' 7534   0.712   5.684   3.295 -0.8623 -1.8075 -1.4767
  397EMI    H1' 7535   0.821   5.611   3.422  0.3198  0.4527  1.1752
  397EMI    H1' 7536   0.716   5.509   3.317 -0.6337 -2.6080  1.4311
  397EMI    C1" 7537   0.441   5.735   3.758  1.3292 -0.3588  0.3631
  397EMI    H1" 7538   0.516   5.798   3.809 -0.9866  1.8163  1.3983
  397EMI    H1" 7539   0.388   5.671   3.825 -1.0019 -3.1045 -0.8434
  397EMI    C2" 7540   0.340   5.823   3.682 -0.3713 -1.1953  0.3384
  397EMI    H2" 7541   0.405   5.901   3.636  0.7873 -1.4913  0.6818
  397EMI    H2" 7542   0.282   5.763   3.617 -0.9060 -1.5563  0.9141
  397EMI    H2" 7543   0.268   5.872   3.751 -0.9874 -3.3117 -1.0560
  398EMI     N1 7544   5.431   1.732   5.745 -0.0743  0.7437 -0.6428
  398EMI     C2 7545   5.543   1.794   5.782  0.2481  0.0550  0.2131
  398EMI     N3 7546   5.643   1.700   5.794  0.3790 -0.4522 -0.1501
  398EMI     C4 7547   5.589   1.577   5.768 -0.0064 -0.1448  0.0064
  398EMI     C5 7548   5.462   1.597   5.735 -0.0773  1.4877 -0.0147
  398EMI     H2 7549   5.554   1.900   5.804  0.7967  0.7425  0.3113
  398EMI     H4 7550   5.639   1.478   5.774  1.4097  2.5378 -1.0522
  398EMI     H5 7551   5.383   1.522   5.716 -1.6457  0.3660  0.0394
  398EMI    C1' 7552   5.775   1.710   5.865 -0.5410 -0.1447  0.7034
  398EMI    H1' 7553   5.835   1.779   5.809  1.0322 -1.1554  0.7844
  398EMI    H1' 7554   5.756   1.751   5.966  0.8197 -2.4892  1.2211
  398EMI    H1' 7555   5.838   1.620   5.880 -0.6761 -1.6872  1.1122
  398EMI    C1" 7556   5.294   1.794   5.722  0.1092 -0.3020 -0.3508
  398EMI    H1" 7557   5.223   1.760   5.795 -0.6644 -2.6405 -2.1647
  398EMI    H1" 7558   5.245   1.760   5.633 -1.4679 -1.2080 -0.4199
  398EMI    C2" 7559   5.298   1.944   5.713  0.1531  0.3718 -1.1502
  398EMI    H2" 7560   5.195   1.977   5.723 -1.8675  1.1707  0.0171
  398EMI    H2" 7561   5.358   1.979   5.796 -4.0127  1.5948 -1.5870
  398EMI    H2" 7562   5.341   1.961   5.613  1.5573  0.1126 -1.3272
  399EMI     N1 7563   5.844   1.067   0.501  0.5601  0.1773 -0.0810
  399EMI     C2 7564   5.785   0.967   0.441  0.1690  0.1588 -0.4703
  399EMI     N3 7565   5.806   0.849   0.510  0.2346  0.9407 -0.4211
  399EMI     C4 7566   5.889   0.884   0.615  0.8274 -0.6625 -1.2825
  399EMI     C5 7567   5.911   1.014   0.609 -0.2275 -0.1997 -0.0127
  399EMI     H2 7568   5.734   0.967   0.344  1.5086  1.4562  1.0621
  399EMI     H4 7569   5.912   0.813   0.691  0.3172 -1.8254 -0.1128
  399EMI     H5 7570   5.986   1.057   0.680  0.6467 -3.1894  1.5536
  399EMI    C1' 7571   5.739   0.719   0.500  0.4627 -0.0105  0.0543
  399EMI    H1' 7572   5.663   0.728   0.420 -0.2250 -1.6815 -1.7306
  399EMI    H1' 7573   5.816   0.649   0.482  0.2123 -0.5242  0.8562
  399EMI    H1' 7574   5.698   0.701   0.601  1.0008  0.0506  0.5013
  399EMI    C1" 7575   5.860   1.200   0.456  0.1694 -0.5881 -0.1019
  399EMI    H1" 7576   5.856   1.202   0.345  0.2143  3.2998  2.5136
  399EMI    H1" 7577   5.950   1.243   0.492  0.3878 -0.0809 -0.3128
  399EMI    C2" 7578   5.744   1.284   0.507  0.9334  0.1026  0.0449
  399EMI    H2" 7579   5.747   1.277   0.616  1.0102 -0.3999  0.0177
  399EMI    H2" 7580   5.749   1.388   0.475 -0.9836  0.8049 -0.0801
  399EMI    H2" 7581   5.653   1.239   0.479  0.0048  0.9543  2.1730
  400EMI     N1 7582   2.878   4.123   0.427 -0.0443 -0.2791 -0.1096
  400EMI     C2 7583   2.873   4.256   0.386 -0.3841  0.2278  0.0525
  400EMI     N3 7584   2.936   4.268   0.271 -0.2155 -0.1556  0.0328
  400EMI     C4 7585   2.994   4.142   0.241 -0.1995  0.9669  0.0222
  400EMI     C5 7586   2.951   4.052   0.330 -0.1832  0.2964 -1.0689
  400EMI     H2 7587   2.802   4.334   0.414  1.1564  0.2942 -2.4004
  400EMI     H4 7588   3.056   4.122   0.157  0.1857  3.1079 -3.8231
  400EMI     H5 7589   2.979   3.950   0.325 -1.7463  1.0715  4.0476
  400EMI    C1' 7590   2.961   4.383   0.181  0.0986 -0.3273 -0.5602
  400EMI    H1' 7591   3.043   4.445   0.223 -1.8287  2.0001  2.0319
  400EMI    H1' 7592   2.980   4.354   0.074  2.2268  1.1079 -2.3443
  400EMI    H1' 7593   2.871   4.445   0.187 -0.9727 -0.3325 -1.2632
  400EMI    C1" 7594   2.808   4.059   0.544  0.1362  0.0159 -0.0664
  400EMI    H1" 7595   2.792   4.140   0.617  2.7303 -0.4979 -1.0545
  400EMI    H1" 7596   2.864   3.981   0.579 -0.4755 -0.0700  1.4532
  400EMI    C2" 7597   2.674   4.012   0.507  0.4821 -0.5301 -0.0607
  400EMI    H2" 7598   2.616   3.981   0.595 -0.5346 -0.6429 -2.3459
  400EMI    H2" 7599   2.624   4.096   0.465 -1.0627  0.0827 -0.7986
  400EMI    H2" 7600   2.676   3.940   0.430 -1.9713 -0.8517  0.2532
  401EMI     N1 7601   3.415   1.059   1.958  0.3390  0.6023 -0.4578
  401EMI     C2 7602   3.384   0.940   2.018  0.2574  0.1394 -0.2360
  401EMI     N3 7603   3.293   0.874   1.946  0.6223  0.2117  0.5349
  401EMI     C4 7604   3.265   0.952   1.831 -0.2860  0.4053 -0.5507
  401EMI     C5 7605   3.343   1.061   1.837 -0.6137 -0.6785 -0.2699
  401EMI     H2 7606   3.429   0.897   2.107  0.5542  0.3689 -0.3635
  401EMI     H4 7607   3.201   0.908   1.754 -0.3592  0.1871 -2.0955
  401EMI     H5 7608   3.352   1.134   1.759  1.1849 -0.5336 -3.5833
  401EMI    C1' 7609   3.227   0.744   1.973 -0.0289 -0.2871  0.6245
  401EMI    H1' 7610   3.145   0.772   2.037  3.6198  4.1800 -0.3433
  401EMI    H1' 7611   3.199   0.706   1.875  1.4103  0.8245  1.4119
  401EMI    H1' 7612   3.300   0.674   2.019  0.7200  0.5564  1.4989
  401EMI    C1" 7613   3.519   1.157   2.005 -0.0007  0.3150 -0.3728
  401EMI    H1" 7614   3.529   1.244   1.937 -0.2751 -0.4904 -2.4241
  401EMI    H1" 7615   3.613   1.119   2.001  0.4038  1.7928 -2.4857
  401EMI    C2" 7616   3.486   1.200   2.150 -0.5312  1.1418 -0.3820
  401EMI    H2" 7617   3.569   1.268   2.172  1.2129 -1.8674 -1.7253
  401EMI    H2" 7618   3.391   1.253   2.145  1.6681  1.6328 -0.0009
  401EMI    H2" 7619   3.485   1.115   2.213 -0.1515 -1.1160  0.7658
  402EMI     N1 7620   0.771   0.978   6.151  0.0423  0.3708  0.0827
  402EMI     C2 7621   0.867   0.942   6.241  0.5013 -0.1560 -0.0474
  402EMI     N3 7622   0.933   0.835   6.190 -0.4067  0.1706  0.2457
  402EMI     C4 7623   0.878   0.807   6.065 -0.6834 -0.0427  0.6400
  402EMI     C5 7624   0.782   0.892   6.040  0.2555  0.2164 -0.5060
  402EMI     H2 7625   0.872   0.982   6.339 -1.9114 -1.1887 -0.0760
  402EMI     H4 7626   0.925   0.735   5.998  1.9765  1.7042  0.3032
  402EMI     H5 7627   0.739   0.893   5.941 -0.2838  0.2994  1.6126
  402EMI    C1' 7628   1.033   0.746   6.250  0.1146 -0.7635  0.9563
  402EMI    H1' 7629   1.026   0.649   6.195  1.9903 -0.4186 -1.1336
  402EMI    H1' 7630   1.132   0.788   6.225  0.3932  1.2796 -0.3932
  402EMI    H1' 7631   1.012   0.738   6.357 -0.5171 -0.7478 -1.9633
  402EMI    C1" 7632   0.679   1.095   6.154 -0.4382 -0.0851  0.5078
  402EMI    H1" 7633   0.695   1.157   6.064 -1.6517  1.6359 -0.7313
  402EMI    H1" 7634   0.698   1.164   6.245 -0.6453  2.7445  0.5113
  402EMI    C2" 7635   0.528   1.056   6.160  0.3167 -0.0154 -0.4875
  402EMI    H2" 7636   0.505   1.003   6.255  2.4935 -0.8521  1.7052
  402EMI    H2" 7637   0.471   1.145   6.157  1.0159 -2.2859  1.0080
  402EMI    H2" 7638   0.498   1.003   6.068 -1.3462  1.2183  0.1355
  403EMI     N1 7639   1.178   1.251   4.869 -0.0549  0.1355 -0.1106
  403EMI     C2 7640   1.100   1.189   4.784  0.2757 -0.7738 -0.0263
  403EMI     N3 7641   1.158   1.193   4.660  0.0840 -0.7061 -0.3008
  403EMI     C4 7642   1.278   1.262   4.671 -0.5801 -0.2654 -0.8756
  403EMI     C5 7643   1.291   1.299   4.800  0.3803 -0.4005 -0.6768
  403EMI     H2 7644   1.012   1.141   4.808 -0.2982  1.5851  0.5561
  403EMI     H4 7645   1.353   1.291   4.593  2.2845 -0.5728 -0.2663
  403EMI     H5 7646   1.379   1.351   4.847  0.8552  0.4895 -0.6138
  403EMI    C1' 7647   1.104   1.138   4.530 -0.2865 -0.0883  0.4222
  403EMI    H1' 7648   1.006   1.094   4.549 -0.5194  1.1298  0.0494
  403EMI    H1' 7649   1.102   1.222   4.456 -0.1169  3.7742  1.0813
  403EMI    H1' 7650   1.172   1.062   4.499 -1.8094  2.7210  1.1460
  403EMI    C1" 7651   1.156   1.282   5.010  0.2186  0.6519  0.5078
  403EMI    H1" 7652   1.217   1.361   5.040 -2.8996 -1.0611 -1.6934
  403EMI    H1" 7653   1.183   1.186   5.064  1.5861  2.1437 -0.4997
  403EMI    C2" 7654   1.008   1.324   5.034 -0.3375 -0.1572  0.3758
  403EMI    H2" 7655   0.985   1.424   4.987 -0.5919 -1.2666 -0.8383
  403EMI    H2" 7656   0.944   1.257   4.978  0.1801 -3.1055 -2.0390
  403EMI    H2" 7657   0.984   1.327   5.145 -0.6651  1.4949 -0.4715
  404EMI     N1 7658   4.557   3.386   3.333  0.4939 -0.6405  0.4324
  404EMI     C2 7659   4.601   3.400   3.209  0.0168 -0.1295 -0.5759
  404EMI     N3 7660   4.719   3.332   3.193  0.0774  0.3158  0.6097
  404EMI     C4 7661   4.751   3.275   3.318 -0.2966 -0.9878 -0.2602
  404EMI     C5 7662   4.651   3.310   3.398 -0.1958  0.3062  0.3258
  404EMI     H2 7663   4.546   3.465   3.135  0.4854 -2.9268  1.7567
  404EMI     H4 7664   4.840   3.208   3.344 -3.4084  0.1584  3.6090
  404EMI     H5 7665   4.643   3.283   3.501 -1.3565 -0.7451  1.7473
  404EMI    C1' 7666   4.817   3.326   3.085 -0.1453  0.4659 -0.2068
  404EMI    H1' 7667   4.770   3.359   2.995 -0.8633  1.9268  0.4327
  404EMI    H1' 7668   4.897   3.399   3.104 -3.9856  2.0573  2.5426
  404EMI    H1' 7669   4.859   3.223   3.080  0.6510 -1.9535  1.9286
  404EMI    C1" 7670   4.439   3.454   3.405 -0.7573 -0.2632  0.6275
  404EMI    H1" 7671   4.380   3.367   3.445  1.4425 -3.1149 -0.3728
  404EMI    H1" 7672   4.378   3.516   3.343  1.3269 -2.6389  2.0591
  404EMI    C2" 7673   4.485   3.554   3.515  0.5778 -0.3167 -0.1486
  404EMI    H2" 7674   4.521   3.503   3.601  0.6838 -0.5581 -1.4124
  404EMI    H2" 7675   4.579   3.603   3.473 -0.5400 -1.0199  3.6864
  404EMI    H2" 7676   4.403   3.614   3.552  3.2765 -0.0572  0.7152
  405EMI     N1 7677   2.132   2.162   2.794 -0.5986 -0.0023  0.4398
  405EMI     C2 7678   2.088   2.198   2.916  0.4550  0.5860  0.2972
  405EMI     N3 7679   1.992   2.110   2.951 -0.2755  0.2105 -0.4960
  405EMI     C4 7680   1.984   2.015   2.848  0.0313  0.4760 -0.2330
  405EMI     C5 7681   2.063   2.053   2.753  0.7125  0.1150  0.8049
  405EMI     H2 7682   2.110   2.290   2.975  4.5254  1.2702  1.2930
  405EMI     H4 7683   1.917   1.924   2.839  0.0247  0.5889 -0.9409
  405EMI     H5 7684   2.078   2.001   2.654 -0.1927  2.0925 -1.8286
  405EMI    C1' 7685   1.897   2.121   3.063 -0.8829 -0.5441  0.5667
  405EMI    H1' 7686   1.871   2.221   3.094 -1.7822 -3.1440 -1.4516
  405EMI    H1' 7687   1.800   2.073   3.036 -0.6361 -2.8260  0.4349
  405EMI    H1' 7688   1.944   2.060   3.138  2.8820 -1.6337  1.1773
  405EMI    C1" 7689   2.227   2.230   2.704 -0.1976 -0.0955 -0.8147
  405EMI    H1" 7690   2.305   2.163   2.669 -0.7004  1.0100  4.0932
  405EMI    H1" 7691   2.284   2.312   2.758 -1.6868  0.5924  1.5810
  405EMI    C2" 7692   2.144   2.292   2.590 -0.3507  0.2813 -0.4543
  405EMI    H2" 7693   2.079   2.369   2.629  0.0255 -2.2426  0.7363
  405EMI    H2" 7694   2.221   2.331   2.521 -0.6613 -0.6796  1.6745
  405EMI    H2" 7695   2.073   2.217   2.539 -0.8883 -0.7171 -0.0658
  406EMI     N1 7696   1.490   6.110   3.814  0.0147  0.3743 -0.8347
  406EMI     C2 7697   1.584   6.119   3.721  0.0781 -0.1636 -0.5095
  406EMI     N3 7698   1.692   6.038   3.751 -0.3419  0.0132 -0.7695
  406EMI     C4 7699   1.660   5.977   3.871  0.1857  0.3893  0.0657
  406EMI     C5 7700   1.539   6.023   3.910 -0.7293  0.6414 -0.6780
  406EMI     H2 7701   1.587   6.183   3.631 -0.7859  0.8774 -1.5844
  406EMI     H4 7702   1.714   5.902   3.920 -1.0611  1.2687 -1.0391
  406EMI     H5 7703   1.497   5.997   4.005  1.4479  1.0833 -1.1803
  406EMI    C1' 7704   1.818   6.036   3.685  0.1493 -0.0580  0.1239
  406EMI    H1' 7705   1.870   6.136   3.685 -0.8206  0.0730 -1.9038
  406EMI    H1' 7706   1.880   5.956   3.734 -1.3447 -0.5928 -0.7119
  406EMI    H1' 7707   1.792   6.004   3.587 -0.8380  2.3390 -0.6795
  406EMI    C1" 7708   1.362   6.177   3.833 -0.9196  1.2366  0.0200
  406EMI    H1" 7709   1.370   6.283   3.804  0.1317  1.5421 -1.8860
  406EMI    H1" 7710   1.325   6.176   3.933 -0.6158 -0.3510 -1.8379
  406EMI    C2" 7711   1.261   6.118   3.737 -0.6088 -0.3514  0.5440
  406EMI    H2" 7712   1.169   6.161   3.772 -1.7956  0.3471  0.2340
  406EMI    H2" 7713   1.278   6.156   3.632  1.4481 -1.2106  0.7184
  406EMI    H2" 7714   1.245   6.013   3.750 -2.9941 -0.3160 -0.2539
  407EMI     N1 7715   2.261   0.650   1.183 -0.5090 -0.7344  0.4732
  407EMI     C2 7716   2.356   0.577   1.237 -0.2506  0.0463  0.0229
  407EMI     N3 7717   2.348   0.455   1.182 -0.0569  0.0837 -0.1748
  407EMI     C4 7718   2.245   0.451   1.094  0.5751 -0.3707  0.3825
  407EMI     C5 7719   2.190   0.574   1.093 -0.4767 -0.6177 -0.0729
  407EMI     H2 7720   2.428   0.612   1.308  0.1779 -2.4445 -2.2036
  407EMI     H4 7721   2.212   0.370   1.034  0.0312  0.8229 -0.8605
  407EMI     H5 7722   2.102   0.602   1.045 -0.8774  0.3109  2.1427
  407EMI    C1' 7723   2.419   0.332   1.212  0.1138 -0.5420  0.2115
  407EMI    H1' 7724   2.417   0.316   1.320  1.1459 -0.8394 -0.9540
  407EMI    H1' 7725   2.363   0.247   1.165  3.0956 -1.1764 -1.2466
  407EMI    H1' 7726   2.519   0.332   1.173 -3.0840  0.5567 -0.4576
  407EMI    C1" 7727   2.228   0.792   1.217  0.7943  0.5162 -0.1795
  407EMI    H1" 7728   2.193   0.788   1.322 -0.4999  2.1367 -0.4739
  407EMI    H1" 7729   2.137   0.821   1.165 -1.9440 -2.2448  2.8223
  407EMI    C2" 7730   2.348   0.881   1.199  0.4439 -0.1634 -0.5327
  407EMI    H2" 7731   2.329   0.974   1.250 -0.4797 -0.2885  1.0936
  407EMI    H2" 7732   2.438   0.831   1.239 -0.8700  0.0020 -0.5370
  407EMI    H2" 7733   2.377   0.904   1.096  2.8644  1.1304 -1.2754
  408EMI     N1 7734   2.968   2.252   1.606 -0.1920 -0.0603  0.3425
  408EMI     C2 7735   3.071   2.166   1.619  0.5776  0.9035  0.2596
  408EMI     N3 7736   3.190   2.227   1.598  0.0737  0.4724 -0.9297
  408EMI     C4 7737   3.161   2.360   1.579  0.4154 -0.5099 -0.1157
  408EMI     C5 7738   3.025   2.377   1.578  0.3160  0.2119  0.0395
  408EMI     H2 7739   3.049   2.063   1.649  0.9402  1.1773 -0.4937
  408EMI     H4 7740   3.232   2.439   1.562 -2.9383  1.2542 -1.7180
  408EMI     H5 7741   2.976   2.467   1.574  2.0918  0.5099  0.9567
  408EMI    C1' 7742   3.326   2.175   1.591 -0.3986 -0.1148  0.2554
  408EMI    H1' 7743   3.346   2.108   1.512  0.3834  0.7784 -3.9842
  408EMI    H1' 7744   3.400   2.258   1.591  0.3801  0.2315 -2.4037
  408EMI    H1' 7745   3.344   2.116   1.684 -0.0904  2.4790 -0.9316
  408EMI    C1" 7746   2.826   2.222   1.625  0.5747  0.6048 -0.7693
  408EMI    H1" 7747   2.759   2.289   1.567  1.1258  0.8247 -1.2365
  408EMI    H1" 7748   2.807   2.244   1.734 -0.4753  0.3130 -2.1008
  408EMI    C2" 7749   2.786   2.072   1.598 -0.3825  0.0780 -0.3878
  408EMI    H2" 7750   2.829   2.016   1.676 -1.2948  0.9918 -0.2325
  408EMI    H2" 7751   2.677   2.063   1.594  1.4378  2.8241 -0.8442
  408EMI    H2" 7752   2.824   2.041   1.495 -0.1178  0.9858 -1.6270
  409EMI     N1 7753   0.190   4.192   5.214  0.1912 -0.2292  0.2709
  409EMI     C2 7754   0.290   4.188   5.304  0.2550  0.2572  0.3644
  409EMI     N3 7755   0.308   4.311   5.353 -0.4866  0.5415  0.4836
  409EMI     C4 7756   0.217   4.391   5.298 -0.7999 -0.1282 -0.3268
  409EMI     C5 7757   0.139   4.320   5.215  0.3065  0.0440 -0.1093
  409EMI     H2 7758   0.350   4.103   5.335  0.3990  0.9656 -0.1274
  409EMI     H4 7759   0.211   4.498   5.301 -2.1142  0.4649 -0.0759
  409EMI     H5 7760   0.064   4.363   5.145 -2.1852  1.6027  1.1735
  409EMI    C1' 7761   0.408   4.360   5.448  0.4137  0.3678  0.0223
  409EMI    H1' 7762   0.500   4.297   5.464 -0.4213 -2.0105  1.1485
  409EMI    H1' 7763   0.431   4.462   5.430  2.4158 -2.5737  0.3128
  409EMI    H1' 7764   0.367   4.344   5.543 -0.4862  2.3791 -1.5890
  409EMI    C1" 7765   0.140   4.079   5.126 -0.3325  0.1879 -0.6734
  409EMI    H1" 7766   0.033   4.064   5.148  0.5727 -0.2422  3.0815
  409EMI    H1" 7767   0.182   3.987   5.164 -0.7848 -1.7804 -0.3002
  409EMI    C2" 7768   0.168   4.109   4.974 -0.3282 -0.0010 -0.1041
  409EMI    H2" 7769   0.274   4.118   4.949  1.0145  1.2443  0.5604
  409EMI    H2" 7770   0.115   4.040   4.907  0.4952 -0.7628 -0.5400
  409EMI    H2" 7771   0.116   4.203   4.940 -2.1265 -0.9087 -0.2524
  410EMI     N1 7772   3.101   1.462   1.099  0.2999  0.0621  1.1617
  410EMI     C2 7773   3.204   1.517   1.167 -0.2636  0.4348  0.7663
  410EMI     N3 7774   3.229   1.443   1.270  0.1778  0.0674  0.2951
  410EMI     C4 7775   3.131   1.348   1.280 -0.0110 -0.2630 -0.1688
  410EMI     C5 7776   3.052   1.355   1.168 -0.7857 -0.2998 -0.0913
  410EMI     H2 7777   3.265   1.602   1.140 -0.9915 -1.3320  0.1950
  410EMI     H4 7778   3.126   1.280   1.364 -0.3917 -0.7865  0.9384
  410EMI     H5 7779   2.962   1.294   1.139 -1.8346  2.2371 -0.4722
  410EMI    C1' 7780   3.344   1.460   1.361 -0.9654  0.2102  0.4894
  410EMI    H1' 7781   3.404   1.370   1.354  1.8644 -0.7894  0.8158
  410EMI    H1' 7782   3.400   1.547   1.326  2.4775  0.1393  0.0752
  410EMI    H1' 7783   3.318   1.475   1.468 -1.8894 -1.6611  1.5248
  410EMI    C1" 7784   3.046   1.508   0.968  0.7845  0.5204  0.0508
  410EMI    H1" 7785   2.981   1.425   0.930  0.2312 -2.5074 -0.0465
  410EMI    H1" 7786   3.133   1.523   0.898  0.0512 -0.1578 -0.8524
  410EMI    C2" 7787   2.969   1.640   0.982  0.9151 -0.0940 -0.5064
  410EMI    H2" 7788   3.031   1.717   1.010 -0.7730  0.9393 -2.8458
  410EMI    H2" 7789   2.924   1.662   0.888  2.6644 -1.0065 -1.0478
  410EMI    H2" 7790   2.887   1.623   1.053 -0.8712 -0.9155  1.8101
  411EMI     N1 7791   3.060   2.434   4.006  0.8436  0.5370 -0.3604
  411EMI     C2 7792   3.004   2.520   3.918 -0.3084 -0.0775  0.8083
  411EMI     N3 7793   3.015   2.643   3.971  0.3587  0.2326 -0.2868
  411EMI     C4 7794   3.088   2.630   4.089  0.1488 -0.6105 -0.6344
  411EMI     C5 7795   3.110   2.502   4.111 -0.1656  0.2035  0.5474
  411EMI     H2 7796   2.950   2.498   3.825 -0.2159  0.2986  3.3375
  411EMI     H4 7797   3.110   2.717   4.147  0.4930  0.5434 -1.1669
  411EMI     H5 7798   3.152   2.459   4.204 -3.5942  1.9906  0.4687
  411EMI    C1' 7799   2.957   2.774   3.935  0.2870  0.4285  0.2853
  411EMI    H1' 7800   2.912   2.827   4.019 -1.2613 -0.0319  0.2340
  411EMI    H1' 7801   3.047   2.826   3.893  1.1921 -0.7302  0.3818
  411EMI    H1' 7802   2.884   2.764   3.857  0.0953 -0.1298  1.3930
  411EMI    C1" 7803   3.062   2.288   4.011 -0.7793 -0.3901  0.0568
  411EMI    H1" 7804   3.100   2.267   4.107 -1.0198  1.5350  2.2773
  411EMI    H1" 7805   3.141   2.245   3.947 -2.9886  2.9618 -0.3026
  411EMI    C2" 7806   2.919   2.224   3.998 -0.8214  0.4385  0.3153
  411EMI    H2" 7807   2.848   2.264   4.056  0.5480 -0.9941  2.4411
  411EMI    H2" 7808   2.884   2.225   3.897 -0.2440 -1.9931 -0.1312
  411EMI    H2" 7809   2.922   2.126   4.025 -1.6858 -0.0289  0.7106
  412EMI     N1 7810   0.227   5.188   3.297  0.5062 -0.5662 -0.1841
  412EMI     C2 7811   0.099   5.146   3.292 -0.0845 -0.6653  0.6437
  412EMI     N3 7812   0.014   5.247   3.273  0.5970  0.2293  0.1965
  412EMI     C4 7813   0.091   5.362   3.287  0.6193  0.2722 -0.4213
  412EMI     C5 7814   0.220   5.323   3.305  0.2038 -0.0416  0.5311
  412EMI     H2 7815   0.070   5.039   3.282 -1.9124 -1.9623  0.3320
  412EMI     H4 7816   0.049   5.462   3.273 -1.4851  0.3964  1.2049
  412EMI     H5 7817   0.300   5.394   3.321 -1.2177  0.2878  0.1267
  412EMI    C1' 7818  -0.134   5.249   3.224  0.3791 -0.2360 -0.6943
  412EMI    H1' 7819  -0.163   5.354   3.212 -0.1632  0.0985 -0.1836
  412EMI    H1' 7820  -0.149   5.203   3.123 -1.5006 -2.8646  0.7625
  412EMI    H1' 7821  -0.195   5.205   3.288  0.0032  1.7459 -3.2952
  412EMI    C1" 7822   0.349   5.110   3.291 -0.1290 -0.7028  0.6130
  412EMI    H1" 7823   0.343   5.032   3.365 -1.0817  0.6643  0.2708
  412EMI    H1" 7824   0.430   5.177   3.314  1.5684 -2.3574 -1.1864
  412EMI    C2" 7825   0.368   5.046   3.154 -0.2637  0.5265  0.2365
  412EMI    H2" 7826   0.460   4.991   3.149 -1.1322 -1.7363 -0.6964
  412EMI    H2" 7827   0.292   4.975   3.132 -2.8577  0.7480  1.0541
  412EMI    H2" 7828   0.362   5.123   3.072 -1.9045 -0.1799  0.7028
  413EMI     N1 7829   1.540   5.030   6.293  0.1917  0.0329  0.6194
  413EMI     C2 7830   1.562   4.917   6.358  0.8987  0.0052 -0.0747
  413EMI     N3 7831   1.673   4.857   6.306  0.2310 -0.1778 -0.7517
  413EMI     C4 7832   1.712   4.934   6.202 -0.3014  0.6128 -0.5428
  413EMI     C5 7833   1.634   5.045   6.198  0.2787 -0.2452  0.3324
  413EMI     H2 7834   1.485   4.878   6.426  1.1762  0.6406  2.4967
  413EMI     H4 7835   1.787   4.924   6.134  0.6246  0.2981  1.9904
  413EMI     H5 7836   1.645   5.129   6.127 -1.7243  1.6950  3.4460
  413EMI    C1' 7837   1.759   4.750   6.348 -0.3173  0.0101  0.2881
  413EMI    H1' 7838   1.712   4.662   6.313  0.6967 -0.5966  0.3757
  413EMI    H1' 7839   1.857   4.756   6.305  2.2233 -1.5780  2.0344
  413EMI    H1' 7840   1.761   4.751   6.456  1.8771  1.0284  0.2485
  413EMI    C1" 7841   1.443   5.132   6.304  0.6031 -0.1725 -0.0022
  413EMI    H1" 7842   1.380   5.132   6.216  1.9578  1.5215 -1.3785
  413EMI    H1" 7843   1.501   5.221   6.315 -0.8938  0.6062  0.3107
  413EMI    C2" 7844   1.357   5.121   6.428 -0.3635  0.2198  0.4729
  413EMI    H2" 7845   1.404   5.187   6.505  0.8788 -0.6365  0.5050
  413EMI    H2" 7846   1.261   5.169   6.407  1.8997 -0.4315 -0.2811
  413EMI    H2" 7847   1.346   5.018   6.458 -2.2859 -1.3301  1.6948
  414EMI     N1 7848   4.978   1.926   5.536  0.0490  0.3267 -0.3088
  414EMI     C2 7849   4.959   1.804   5.488  0.1191 -0.2675  0.0609
  414EMI     N3 7850   4.925   1.724   5.588  0.3660  0.7564  0.9952
  414EMI     C4 7851   4.911   1.802   5.703 -0.2489  0.5880  0.3363
  414EMI     C5 7852   4.954   1.924   5.672 -0.4567  0.6690  0.2533
  414EMI     H2 7853   4.965   1.770   5.380 -0.2902 -1.0853 -1.2278
  414EMI     H4 7854   4.880   1.777   5.801  1.8368  1.4125 -0.1794
  414EMI     H5 7855   4.966   1.999   5.744  0.6250 -0.4850 -2.4823
  414EMI    C1' 7856   4.912   1.578   5.592  0.0576 -0.5511  0.2891
  414EMI    H1' 7857   4.989   1.520   5.535  1.6205  2.8676 -0.9891
  414EMI    H1' 7858   4.907   1.546   5.693 -1.2583 -2.3310  2.2309
  414EMI    H1' 7859   4.811   1.556   5.555  0.0867  1.0307 -0.5765
  414EMI    C1" 7860   5.035   2.045   5.464 -0.0897  0.2079 -0.0714
  414EMI    H1" 7861   5.083   2.108   5.540  0.3108  0.5365 -0.2271
  414EMI    H1" 7862   4.956   2.101   5.412 -0.8248  1.0304 -0.3183
  414EMI    C2" 7863   5.147   2.003   5.360 -0.8729 -0.1780 -0.5574
  414EMI    H2" 7864   5.199   2.091   5.311  1.4368  1.8109 -0.4630
  414EMI    H2" 7865   5.217   1.944   5.420  0.3089 -0.5321  1.9181
  414EMI    H2" 7866   5.096   1.938   5.290  0.2717 -0.0478  0.7471
  415EMI     N1 7867   2.796   1.673   3.565  0.1860  0.2683  0.2818
  415EMI     C2 7868   2.872   1.675   3.674  0.0305  0.2891  0.0641
  415EMI     N3 7869   2.846   1.563   3.745  0.1249 -0.0459  0.2588
  415EMI     C4 7870   2.751   1.484   3.680  0.3670  0.9497 -0.3346
  415EMI     C5 7871   2.726   1.555   3.567  0.3127  0.3815  1.0797
  415EMI     H2 7872   2.938   1.756   3.697  0.5724  1.3553 -0.3059
  415EMI     H4 7873   2.711   1.385   3.694 -2.0413 -1.3608  1.3525
  415EMI     H5 7874   2.667   1.521   3.488 -0.3297  0.5303  1.3904
  415EMI    C1' 7875   2.921   1.512   3.861  0.0098 -0.0796  0.4385
  415EMI    H1' 7876   2.938   1.414   3.848 -3.7400 -0.4592 -1.2313
  415EMI    H1' 7877   3.015   1.567   3.853  0.7013  3.5853  1.8464
  415EMI    H1' 7878   2.876   1.530   3.959  0.6365 -0.0012 -0.0425
  415EMI    C1" 7879   2.783   1.781   3.458 -0.8186  0.3160  0.6410
  415EMI    H1" 7880   2.833   1.750   3.362 -1.2255 -0.9214 -0.0750
  415EMI    H1" 7881   2.811   1.879   3.497 -0.5147  3.2647 -0.2260
  415EMI    C2" 7882   2.633   1.805   3.422 -0.9393  0.4337  0.1693
  415EMI    H2" 7883   2.573   1.826   3.504  0.6295 -1.1446 -0.3170
  415EMI    H2" 7884   2.614   1.872   3.340  0.9242  2.1587 -1.9653
  415EMI    H2" 7885   2.595   1.709   3.395 -1.9183  2.7735 -2.0007
  416EMI     N1 7886   1.384   5.719   1.481 -0.7894  0.3158 -0.0603
  416EMI     C2 7887   1.296   5.790   1.408  0.0037  0.3345  0.1418
  416EMI     N3 7888   1.187   5.717   1.377  0.6935 -0.4649 -0.4004
  416EMI     C4 7889   1.213   5.588   1.418  0.3292  0.2455  0.3345
  416EMI     C5 7890   1.332   5.588   1.485 -0.4262 -0.3156  0.1708
  416EMI     H2 7891   1.308   5.895   1.387  2.7583  0.5354 -0.8230
  416EMI     H4 7892   1.139   5.505   1.403  0.4622 -0.5458  0.5258
  416EMI     H5 7893   1.385   5.505   1.523  1.4176  0.6035  0.8498
  416EMI    C1' 7894   1.062   5.761   1.318  0.4939 -0.2016 -0.0209
  416EMI    H1' 7895   0.984   5.697   1.344  0.8259  0.9997 -2.5107
  416EMI    H1' 7896   1.049   5.855   1.360  0.3444 -1.5324 -3.2626
  416EMI    H1' 7897   1.083   5.758   1.207  3.0106  1.2494 -0.0779
  416EMI    C1" 7898   1.524   5.752   1.522 -0.2520  0.3231 -0.3793
  416EMI    H1" 7899   1.547   5.705   1.622 -1.5596 -0.2153 -0.3056
  416EMI    H1" 7900   1.527   5.858   1.541 -1.5007 -0.5394  1.1688
  416EMI    C2" 7901   1.619   5.702   1.424 -0.5363 -0.4278  0.6204
  416EMI    H2" 7902   1.718   5.751   1.446 -2.3352  2.4062  2.2685
  416EMI    H2" 7903   1.623   5.597   1.442  2.5921  3.0956  0.7310
  416EMI    H2" 7904   1.593   5.721   1.319 -1.2649  1.9894 -1.4061
  417EMI     N1 7905   1.145   2.852   0.837 -0.6687 -0.2269 -0.1967
  417EMI     C2 7906   1.162   2.725   0.860 -0.4781 -0.2169 -0.9578
  417EMI     N3 7907   1.044   2.668   0.897  0.0341  0.0355 -0.3080
  417EMI     C4 7908   0.952   2.772   0.911  0.1805  0.0004  0.5252
  417EMI     C5 7909   1.015   2.885   0.875 -0.5897  0.0913  0.2262
  417EMI     H2 7910   1.249   2.661   0.868 -1.4814 -3.3970 -0.3787
  417EMI     H4 7911   0.849   2.755   0.928  1.0548 -1.5448 -1.9232
  417EMI     H5 7912   0.965   2.975   0.872 -2.2791 -0.7063  0.4970
  417EMI    C1' 7913   1.017   2.537   0.956  0.0579 -0.1534  0.5389
  417EMI    H1' 7914   0.908   2.508   0.962 -1.7749 -2.5760  1.4910
  417EMI    H1' 7915   1.063   2.466   0.890 -0.9993  0.6986  0.6552
  417EMI    H1' 7916   1.060   2.538   1.055 -0.9596 -1.8157 -0.8961
  417EMI    C1" 7917   1.238   2.954   0.783  0.2162  0.6443  0.1279
  417EMI    H1" 7918   1.251   3.034   0.860 -2.3893  0.3195 -1.7761
  417EMI    H1" 7919   1.180   2.999   0.704 -1.7562 -1.2484 -2.8581
  417EMI    C2" 7920   1.366   2.888   0.728  0.7485 -0.4818  0.0260
  417EMI    H2" 7921   1.424   2.966   0.674 -0.4141 -0.0417 -1.6908
  417EMI    H2" 7922   1.421   2.841   0.798  1.2365  2.3833 -3.0007
  417EMI    H2" 7923   1.341   2.808   0.660  1.6960 -0.3546  1.8729
  418EMI     N1 7924   3.113   1.504   1.867 -0.0541  0.0331 -0.2064
  418EMI     C2 7925   3.164   1.601   1.792 -0.2454  0.2552  0.2435
  418EMI     N3 7926   3.143   1.716   1.844  0.1902 -0.3683  0.4298
  418EMI     C4 7927   3.089   1.696   1.970 -1.3427 -0.7398  0.0307
  418EMI     C5 7928   3.068   1.564   1.988 -0.0974 -0.2199 -0.7816
  418EMI     H2 7929   3.201   1.580   1.691  0.7175  1.5505 -1.4502
  418EMI     H4 7930   3.061   1.773   2.038 -0.1801  1.6575 -3.4245
  418EMI     H5 7931   3.034   1.511   2.076  1.1070  1.9965  2.0634
  418EMI    C1' 7932   3.184   1.854   1.808  0.4400  0.6482 -0.5437
  418EMI    H1' 7933   3.286   1.869   1.768 -0.2458  2.0593  2.9026
  418EMI    H1' 7934   3.111   1.885   1.735  0.7962 -1.8482 -1.3203
  418EMI    H1' 7935   3.182   1.921   1.895 -1.1713  2.5163  2.4885
  418EMI    C1" 7936   3.115   1.355   1.839 -0.1917 -0.3716 -0.1516
  418EMI    H1" 7937   3.208   1.334   1.784  4.7900 -0.2093  1.9386
  418EMI    H1" 7938   3.030   1.320   1.781 -0.5445 -2.2944  0.6677
  418EMI    C2" 7939   3.112   1.282   1.975 -0.4269  0.0374  1.1014
  418EMI    H2" 7940   3.087   1.179   1.962 -1.3613  0.7151 -0.2151
  418EMI    H2" 7941   3.210   1.292   2.026  0.9873  0.0253  0.0303
  418EMI    H2" 7942   3.023   1.318   2.033 -0.2536 -1.6412  1.5747
  419EMI     N1 7943   2.214   0.727   5.069 -0.5780 -0.5543  0.3164
  419EMI     C2 7944   2.292   0.788   4.981  0.6030 -0.4916 -0.1392
  419EMI     N3 7945   2.358   0.887   5.044 -0.3416 -0.1720 -0.1499
  419EMI     C4 7946   2.305   0.891   5.173  1.0423  0.4056  0.6911
  419EMI     C5 7947   2.220   0.792   5.187  0.3587 -0.5658  0.1072
  419EMI     H2 7948   2.296   0.768   4.878  0.7552 -0.4478 -3.3213
  419EMI     H4 7949   2.330   0.969   5.244 -0.2721  1.4253 -0.5181
  419EMI     H5 7950   2.158   0.755   5.270 -2.6287 -1.8605  1.2206
  419EMI    C1' 7951   2.439   1.000   4.998  0.0123  0.1823  0.3711
  419EMI    H1' 7952   2.442   1.073   5.081 -3.0203  0.5462 -1.7972
  419EMI    H1' 7953   2.529   0.953   4.976 -2.4145  0.3433  0.9040
  419EMI    H1' 7954   2.389   1.047   4.911 -1.4231  2.2727  1.2490
  419EMI    C1" 7955   2.124   0.608   5.052 -0.6052  0.0935  0.6717
  419EMI    H1" 7956   2.038   0.623   4.980  0.3198  0.7856 -1.7149
  419EMI    H1" 7957   2.098   0.577   5.153  1.2264  1.0560  0.5625
  419EMI    C2" 7958   2.209   0.496   4.995 -0.4392  0.3966 -0.2676
  419EMI    H2" 7959   2.241   0.521   4.894 -0.8758 -2.4977  3.9976
  419EMI    H2" 7960   2.298   0.503   5.061  1.2402  1.0862  0.0357
  419EMI    H2" 7961   2.156   0.401   5.006  1.7891  2.8322  1.6728
  420EMI     N1 7962   1.578   5.372   4.224 -0.2430 -0.1959 -0.1811
  420EMI     C2 7963   1.543   5.458   4.325  0.6732 -0.7563 -0.2373
  420EMI     N3 7964   1.643   5.542   4.346 -0.2983  0.4596  0.8627
  420EMI     C4 7965   1.744   5.513   4.260  0.2177  0.6157  0.8777
  420EMI     C5 7966   1.706   5.409   4.183 -0.1797 -0.8608 -0.7519
  420EMI     H2 7967   1.455   5.448   4.382  2.3265 -2.1035 -0.4241
  420EMI     H4 7968   1.847   5.557   4.253 -0.5277 -2.7799 -0.2051
  420EMI     H5 7969   1.768   5.371   4.096 -0.4757 -1.8153 -0.1949
  420EMI    C1' 7970   1.648   5.659   4.435  0.1545 -0.7683  0.7776
  420EMI    H1' 7971   1.621   5.626   4.537  1.0600 -2.2930  0.3376
  420EMI    H1' 7972   1.750   5.711   4.438  1.2220 -1.7018  2.7898
  420EMI    H1' 7973   1.574   5.734   4.409 -0.8054  2.2431  0.1468
  420EMI    C1" 7974   1.513   5.252   4.174  0.0132 -0.2861 -0.1808
  420EMI    H1" 7975   1.541   5.159   4.227  0.2061 -2.4727 -1.1386
  420EMI    H1" 7976   1.545   5.234   4.071 -1.0365  0.2236  2.0110
  420EMI    C2" 7977   1.359   5.256   4.172 -0.2561 -0.4921 -0.1569
  420EMI    H2" 7978   1.323   5.343   4.118 -3.2080  0.4225  0.1744
  420EMI    H2" 7979   1.327   5.170   4.114 -0.6548 -1.8581 -1.1179
  420EMI    H2" 7980   1.318   5.239   4.273  0.3069 -0.9092  1.4771
  421EMI     N1 7981   2.310   0.589   3.121  0.2637  0.0618  0.0499
  421EMI     C2 7982   2.437   0.567   3.083 -0.4282  0.5080  0.0492
  421EMI     N3 7983   2.459   0.436   3.080  0.2133  0.0793 -0.3055
  421EMI     C4 7984   2.343   0.371   3.111 -0.3391 -0.5263 -0.3118
  421EMI     C5 7985   2.243   0.466   3.131  0.0634  0.0393  0.0047
  421EMI     H2 7986   2.510   0.648   3.064  0.5909  1.4146  0.2502
  421EMI     H4 7987   2.326   0.268   3.094 -1.3121  0.9488 -1.9805
  421EMI     H5 7988   2.142   0.451   3.142 -1.7199 -2.1813  1.3754
  421EMI    C1' 7989   2.571   0.361   3.020 -0.0573  0.1820 -0.6725
  421EMI    H1' 7990   2.646   0.348   3.085 -2.0068  2.1295 -1.1996
  421EMI    H1' 7991   2.533   0.263   3.004 -1.2749  2.0789  0.9482
  421EMI    H1' 7992   2.599   0.400   2.921 -0.1117 -2.9388 -0.5484
  421EMI    C1" 7993   2.233   0.721   3.142 -0.3922 -0.1213 -0.4676
  421EMI    H1" 7994   2.307   0.792   3.123  2.3498 -0.5101  1.6281
  421EMI    H1" 7995   2.185   0.712   3.242  1.3583  0.2798 -0.2169
  421EMI    C2" 7996   2.137   0.751   3.030  0.5617 -0.2331  1.1341
  421EMI    H2" 7997   2.193   0.767   2.937  2.4094  4.4651  2.2321
  421EMI    H2" 7998   2.054   0.674   3.021 -1.6810 -1.4155  1.3220
  421EMI    H2" 7999   2.087   0.855   3.051 -1.3021  1.9403  0.6908
  422EMI     N1 8000   3.597   3.630   0.060 -0.3118 -0.2287 -1.1637
  422EMI     C2 8001   3.496   3.553   0.110 -0.0153 -0.1373 -0.0200
  422EMI     N3 8002   3.502   3.427   0.069 -0.0013 -0.3004  0.0562
  422EMI     C4 8003   3.615   3.425  -0.011  0.1059 -0.0073  0.3862
  422EMI     C5 8004   3.675   3.546  -0.013 -0.6333 -0.2690  0.1873
  422EMI     H2 8005   3.427   3.590   0.182 -0.8668  0.8266 -1.7034
  422EMI     H4 8006   3.643   3.330  -0.064 -1.9492 -1.0112  0.6571
  422EMI     H5 8007   3.764   3.573  -0.076  2.4983 -0.2235 -0.7431
  422EMI    C1' 8008   3.408   3.309   0.084 -0.1381 -1.0065 -0.1722
  422EMI    H1' 8009   3.376   3.306   0.185  3.4077 -1.1987 -0.2744
  422EMI    H1' 8010   3.323   3.326   0.008 -1.1837  3.6422 -0.5363
  422EMI    H1' 8011   3.465   3.214   0.067  0.8378 -3.4656  1.0061
  422EMI    C1" 8012   3.632   3.776   0.086  0.2217 -0.5749  0.2274
  422EMI    H1" 8013   3.562   3.834   0.039 -0.5605 -0.2512  2.1478
  422EMI    H1" 8014   3.730   3.799   0.051 -1.5975 -1.7491 -0.3689
  422EMI    C2" 8015   3.619   3.805   0.235  0.3289 -0.2424 -0.5210
  422EMI    H2" 8016   3.515   3.792   0.260  3.0710  0.1203  1.0218
  422EMI    H2" 8017   3.688   3.748   0.304 -0.3245 -0.0058 -3.4160
  422EMI    H2" 8018   3.626   3.913   0.254  0.0120  1.7031  2.4592
  423EMI     N1 8019   2.525   2.486   2.205  0.0496 -0.4426  0.0579
  423EMI     C2 8020   2.495   2.423   2.318 -0.1203  0.1225  0.2291
  423EMI     N3 8021   2.594   2.335   2.341  0.1947  0.3732  0.0933
  423EMI     C4 8022   2.685   2.343   2.238  1.0930 -0.3862  0.1339
  423EMI     C5 8023   2.641   2.442   2.160  0.2988 -0.3406 -0.2120
  423EMI     H2 8024   2.417   2.444   2.384 -1.1134 -2.3296 -1.5648
  423EMI     H4 8025   2.777   2.289   2.220 -0.9868 -0.4083  0.0855
  423EMI     H5 8026   2.692   2.476   2.070 -1.9643 -2.8877  1.7180
  423EMI    C1' 8027   2.620   2.250   2.459  0.1794 -0.1406  0.6991
  423EMI    H1' 8028   2.648   2.313   2.544  0.0176 -1.8778 -2.3040
  423EMI    H1' 8029   2.536   2.188   2.489  1.2459  0.0690 -1.4104
  423EMI    H1' 8030   2.707   2.189   2.434 -0.6350  1.7302  0.6989
  423EMI    C1" 8031   2.464   2.615   2.150 -0.1477  0.3740  0.1992
  423EMI    H1" 8032   2.362   2.607   2.122  0.6025 -1.2495  0.8447
  423EMI    H1" 8033   2.513   2.639   2.055  0.1975 -1.0147 -2.1674
  423EMI    C2" 8034   2.465   2.733   2.249  0.1786  0.3748 -0.0565
  423EMI    H2" 8035   2.568   2.765   2.242 -3.2987 -3.1429 -1.6741
  423EMI    H2" 8036   2.406   2.822   2.217 -1.2532  0.1376 -1.6761
  423EMI    H2" 8037   2.441   2.708   2.343  0.7823 -0.5449 -2.4017
  424EMI     N1 8038   6.077   1.813   0.399  0.3837  0.9344 -0.1278
  424EMI     C2 8039   5.988   1.727   0.453  0.1179 -0.8783 -0.0376
  424EMI     N3 8040   5.902   1.797   0.529  0.0412  0.7767  0.4668
  424EMI     C4 8041   5.927   1.928   0.510 -0.6385 -0.4927  0.0271
  424EMI     C5 8042   6.037   1.937   0.437  0.0421  0.0772 -0.3951
  424EMI     H2 8043   5.987   1.619   0.449  1.9090  0.2942 -0.1709
  424EMI     H4 8044   5.870   2.008   0.548 -1.6311 -0.5085 -2.2407
  424EMI     H5 8045   6.083   2.032   0.418 -3.3910 -0.5269 -1.5790
  424EMI    C1' 8046   5.781   1.746   0.592 -0.1819 -0.1400 -0.0788
  424EMI    H1' 8047   5.803   1.780   0.687  1.3045  2.3493  1.3079
  424EMI    H1' 8048   5.683   1.791   0.561 -1.9812  0.6204 -0.1074
  424EMI    H1' 8049   5.781   1.639   0.573  1.6979  1.3162  1.2738
  424EMI    C1" 8050   6.211   1.795   0.342  0.7352 -0.7390 -0.4530
  424EMI    H1" 8051   6.249   1.889   0.299  0.5257  2.1059  0.3499
  424EMI    H1" 8052   6.214   1.714   0.266 -1.1074 -0.8456 -0.5994
  424EMI    C2" 8053   6.313   1.741   0.444 -0.0363  0.1519 -0.0921
  424EMI    H2" 8054   6.276   1.648   0.483 -2.7961  2.6573 -2.1896
  424EMI    H2" 8055   6.411   1.719   0.398  3.2049  2.6095 -2.4212
  424EMI    H2" 8056   6.324   1.810   0.527  2.6053 -0.5107 -0.7611
  425EMI     N1 8057   6.074   3.959   3.735 -0.4104  0.5718 -0.1224
  425EMI     C2 8058   6.080   3.944   3.596  0.6231 -0.1779 -0.6984
  425EMI     N3 8059   6.153   3.838   3.559 -0.4718  0.2370 -0.0370
  425EMI     C4 8060   6.201   3.785   3.681 -0.8680 -0.6945 -0.6915
  425EMI     C5 8061   6.151   3.853   3.785 -0.1086 -0.5257 -0.1442
  425EMI     H2 8062   6.031   4.020   3.530 -1.2537  3.3363 -2.7129
  425EMI     H4 8063   6.260   3.695   3.691 -0.9270 -1.9757 -2.8453
  425EMI     H5 8064   6.160   3.843   3.901  0.2410  1.8397 -0.5594
  425EMI    C1' 8065   6.209   3.799   3.433  0.2647  0.2586 -0.0404
  425EMI    H1' 8066   6.191   3.694   3.427  1.2283 -2.2394  1.0588
  425EMI    H1' 8067   6.142   3.851   3.361  1.6208 -2.0722  1.0611
  425EMI    H1' 8068   6.319   3.825   3.433  4.5300 -0.2529  1.0318
  425EMI    C1" 8069   6.025   4.067   3.814 -1.0050 -0.6635 -0.5191
  425EMI    H1" 8070   6.039   4.040   3.912  0.2749 -0.9683 -0.9996
  425EMI    H1" 8071   5.917   4.082   3.808  1.5262  2.6272  0.7092
  425EMI    C2" 8072   6.090   4.206   3.787  0.0921  0.3917  0.2715
  425EMI    H2" 8073   6.189   4.220   3.821 -0.6041  3.2661  0.0613
  425EMI    H2" 8074   6.082   4.237   3.676 -1.5171 -1.4245  0.1150
  425EMI    H2" 8075   6.029   4.288   3.838 -2.0435  1.2748  2.9630
  426EMI     N1 8076   3.838   6.099   4.691 -0.1075  0.4726  0.5970
  426EMI     C2 8077   3.734   6.184   4.706  0.3247  0.5332 -0.1346
  426EMI     N3 8078   3.699   6.242   4.588  0.1830  0.8389  0.1445
  426EMI     C4 8079   3.794   6.191   4.495 -0.3419  0.4713  0.3371
  426EMI     C5 8080   3.878   6.108   4.558  0.2775  0.0505 -0.7170
  426EMI     H2 8081   3.682   6.197   4.800  1.7092 -2.6647 -0.4004
  426EMI     H4 8082   3.800   6.229   4.392  0.3721  1.4071 -1.4912
  426EMI     H5 8083   3.968   6.063   4.513 -0.6345 -0.0736 -0.6729
  426EMI    C1' 8084   3.587   6.335   4.554  0.8798  0.6136 -0.3999
  426EMI    H1' 8085   3.618   6.383   4.458  2.1449  0.7763 -0.9664
  426EMI    H1' 8086   3.493   6.275   4.545  0.3058  0.6100 -0.8154
  426EMI    H1' 8087   3.585   6.415   4.629 -0.2638  0.2170  0.8071
  426EMI    C1" 8088   3.906   6.013   4.786  0.0055  0.3150  0.4852
  426EMI    H1" 8089   4.005   5.993   4.755 -0.3128 -0.7266  0.1730
  426EMI    H1" 8090   3.866   5.916   4.797 -1.6293 -1.2433  0.3940
  426EMI    C2" 8091   3.919   6.085   4.924 -0.0215  0.0002 -0.1825
  426EMI    H2" 8092   3.821   6.087   4.968  0.8859  0.3184 -1.8141
  426EMI    H2" 8093   3.998   6.036   4.981 -0.6799  0.1416  0.0506
  426EMI    H2" 8094   3.952   6.188   4.900  1.3336  0.0352 -1.7262
  427EMI     N1 8095   1.659   5.027   5.525  0.2706 -0.3845 -0.1812
  427EMI     C2 8096   1.577   5.123   5.469  0.0287  0.6005 -0.1263
  427EMI     N3 8097   1.630   5.242   5.475  0.2079 -0.0806  0.7360
  427EMI     C4 8098   1.754   5.230   5.532  0.0347  0.2233  0.4539
  427EMI     C5 8099   1.772   5.098   5.560 -0.0881 -0.3418 -0.3953
  427EMI     H2 8100   1.484   5.097   5.426  2.1278  0.9998 -0.6148
  427EMI     H4 8101   1.829   5.307   5.549  0.1393 -0.3378  2.0937
  427EMI     H5 8102   1.861   5.062   5.612  1.6474  0.0859 -0.2447
  427EMI    C1' 8103   1.581   5.376   5.439 -0.5852 -0.3456  0.8106
  427EMI    H1' 8104   1.591   5.451   5.517 -0.4179  1.3308  1.5186
  427EMI    H1' 8105   1.634   5.409   5.350  1.2886 -3.0855  0.7609
  427EMI    H1' 8106   1.479   5.358   5.411  2.6253  2.0788 -2.6950
  427EMI    C1" 8107   1.643   4.873   5.527  0.5194  0.0881 -0.5482
  427EMI    H1" 8108   1.541   4.842   5.547 -0.5182 -1.3600 -1.3622
  427EMI    H1" 8109   1.704   4.836   5.604 -1.3856 -0.1580 -2.1893
  427EMI    C2" 8110   1.690   4.817   5.397  0.3541 -0.5688  0.6140
  427EMI    H2" 8111   1.652   4.714   5.396 -0.8428 -0.1475 -0.5825
  427EMI    H2" 8112   1.629   4.860   5.319  1.0706 -1.5038 -0.2134
  427EMI    H2" 8113   1.797   4.816   5.387 -1.0530 -2.3427 -1.8826
  428EMI     N1 8114   2.539   5.473   1.335  0.2200 -0.7082 -0.6055
  428EMI     C2 8115   2.628   5.572   1.329 -0.2531  0.7884  0.3099
  428EMI     N3 8116   2.727   5.548   1.239  0.0084  0.3218  0.3495
  428EMI     C4 8117   2.696   5.426   1.183  0.4226 -0.4358  0.4867
  428EMI     C5 8118   2.585   5.381   1.239  0.4053 -0.0145  0.0379
  428EMI     H2 8119   2.609   5.656   1.385  0.9812 -0.8371 -0.0314
  428EMI     H4 8120   2.746   5.381   1.097 -0.7224  1.4024  0.1940
  428EMI     H5 8121   2.537   5.286   1.216  1.7804 -0.6029 -0.4515
  428EMI    C1' 8122   2.835   5.630   1.189  0.6085  0.7918  0.0429
  428EMI    H1' 8123   2.916   5.636   1.251  0.4539 -1.4662 -0.2741
  428EMI    H1' 8124   2.862   5.604   1.091  2.6544  1.5758  1.0715
  428EMI    H1' 8125   2.792   5.733   1.178 -2.0432  0.8676 -2.1874
  428EMI    C1" 8126   2.425   5.449   1.436  0.1094  0.1201  0.7554
  428EMI    H1" 8127   2.470   5.406   1.523 -2.5993  0.9016 -0.7445
  428EMI    H1" 8128   2.361   5.370   1.397  1.2971  1.7223  2.4280
  428EMI    C2" 8129   2.350   5.577   1.468  0.4611  0.1353  0.4366
  428EMI    H2" 8130   2.416   5.658   1.512  0.5878 -0.4578  4.3462
  428EMI    H2" 8131   2.304   5.607   1.374 -3.2086 -0.8686  2.4915
  428EMI    H2" 8132   2.267   5.555   1.535  0.6114 -0.8810  1.0668
  429EMI     N1 8133   1.375   0.333   1.384  0.5149  0.3315 -0.4724
  429EMI     C2 8134   1.266   0.411   1.361  0.0725  0.4773 -0.1283
  429EMI     N3 8135   1.291   0.537   1.391 -0.1351 -0.3589 -0.9478
  429EMI     C4 8136   1.415   0.541   1.444 -0.1316 -0.4793 -0.1345
  429EMI     C5 8137   1.469   0.418   1.442 -0.2400 -0.5759  0.3522
  429EMI     H2 8138   1.171   0.385   1.307 -3.9414  0.2222 -0.7267
  429EMI     H4 8139   1.458   0.630   1.487  0.7212 -1.9967 -1.1757
  429EMI     H5 8140   1.565   0.392   1.484 -0.0230  1.8755  0.1914
  429EMI    C1' 8141   1.199   0.647   1.398 -0.1138  0.0037 -0.3378
  429EMI    H1' 8142   1.102   0.603   1.393 -3.3462 -0.4335  2.0949
  429EMI    H1' 8143   1.210   0.719   1.477  3.8840  1.5928 -0.3486
  429EMI    H1' 8144   1.221   0.696   1.302 -1.5112 -0.3816 -1.4091
  429EMI    C1" 8145   1.395   0.189   1.358 -0.2438 -0.2206  0.7045
  429EMI    H1" 8146   1.495   0.151   1.374  0.7372  0.9729  0.9526
  429EMI    H1" 8147   1.355   0.160   1.267  3.2064 -1.7732  0.3565
  429EMI    C2" 8148   1.302   0.107   1.444  0.9831 -0.0941  0.4432
  429EMI    H2" 8149   1.321   0.148   1.548 -0.3534  0.9343 -1.7287
  429EMI    H2" 8150   1.197   0.124   1.417  0.1460 -0.1565  4.0918
  429EMI    H2" 8151   1.323  -0.003   1.433  0.5301 -0.7894 -0.1873
  430EMI     N1 8152   3.942   3.532   0.199 -0.3481 -0.4917 -0.1036
  430EMI     C2 8153   3.921   3.605   0.307  0.1790  0.2758  0.1236
  430EMI     N3 8154   3.969   3.728   0.286 -0.0948 -0.6379  0.3366
  430EMI     C4 8155   4.026   3.732   0.160  0.6310 -0.7638 -0.1965
  430EMI     C5 8156   3.995   3.614   0.098 -0.4808  0.0937  0.4319
  430EMI     H2 8157   3.886   3.560   0.405 -0.4621 -0.6735  1.9251
  430EMI     H4 8158   4.074   3.827   0.126 -2.2697  2.1279 -0.4840
  430EMI     H5 8159   4.017   3.596  -0.014  0.1043  2.1901  2.1551
  430EMI    C1' 8160   3.988   3.835   0.383 -0.2277  0.3758 -0.6774
  430EMI    H1' 8161   3.998   3.933   0.344 -0.6480  2.9281  1.0714
  430EMI    H1' 8162   3.912   3.833   0.460 -0.7304 -1.1978 -4.1630
  430EMI    H1' 8163   4.079   3.818   0.450  0.0951  2.1934  0.4407
  430EMI    C1" 8164   3.902   3.389   0.172  0.9886 -0.0369 -0.3605
  430EMI    H1" 8165   3.910   3.352   0.066 -1.9883 -0.2986 -1.1422
  430EMI    H1" 8166   3.798   3.374   0.209 -1.9599 -0.5810  0.5157
  430EMI    C2" 8167   3.990   3.297   0.263  0.1741  0.0753  0.7805
  430EMI    H2" 8168   4.093   3.324   0.243 -0.9061 -0.9442 -0.4921
  430EMI    H2" 8169   3.963   3.300   0.364 -0.3233 -2.0312 -0.4637
  430EMI    H2" 8170   3.974   3.200   0.226  2.0341  1.4938 -0.6844
  431EMI     N1 8171   0.112   4.297   3.513  0.2552  0.6591 -0.3277
  431EMI     C2 8172   0.098   4.333   3.383  0.1447  0.2606  0.2660
  431EMI     N3 8173   0.026   4.243   3.309 -0.1677 -0.0021  0.0344
  431EMI     C4 8174   0.002   4.145   3.400 -0.3004  0.3792  0.5455
  431EMI     C5 8175   0.059   4.169   3.517  0.3374  0.5515 -0.3844
  431EMI     H2 8176   0.126   4.430   3.354 -1.9536  0.1116  0.1867
  431EMI     H4 8177  -0.051   4.053   3.368  0.3011 -1.4247 -2.6543
  431EMI     H5 8178   0.055   4.108   3.613 -0.1630 -0.5584  3.1597
  431EMI    C1' 8179  -0.029   4.240   3.176 -0.2776 -0.3314  0.1603
  431EMI    H1' 8180   0.027   4.291   3.094 -0.6154  1.9220  0.4114
  431EMI    H1' 8181  -0.036   4.133   3.144 -3.0740 -1.3592  1.0281
  431EMI    H1' 8182  -0.127   4.283   3.178 -1.2084  0.6458 -2.2854
  431EMI    C1" 8183   0.163   4.374   3.630 -0.5204 -0.3672  0.7973
  431EMI    H1" 8184   0.248   4.434   3.590  2.6795  1.2346 -1.0362
  431EMI    H1" 8185   0.194   4.312   3.712  0.5881  1.0740  1.7251
  431EMI    C2" 8186   0.054   4.469   3.677 -0.3806 -0.3720  0.6437
  431EMI    H2" 8187   0.018   4.523   3.592 -2.1455  1.2324  2.9806
  431EMI    H2" 8188  -0.029   4.407   3.713 -1.1870  1.8426 -1.7344
  431EMI    H2" 8189   0.106   4.536   3.755  1.7820  2.0150 -0.0298
  432EMI     N1 8190   2.966   0.775   4.698  0.0400  0.7745  0.2463
  432EMI     C2 8191   3.045   0.757   4.803 -0.1883  0.0539  0.3500
  432EMI     N3 8192   2.976   0.716   4.910  0.0092  0.2806  0.5939
  432EMI     C4 8193   2.845   0.708   4.865 -0.4579  0.0343 -0.2203
  432EMI     C5 8194   2.836   0.743   4.736 -0.2129 -0.1248 -0.0775
  432EMI     H2 8195   3.152   0.763   4.799  1.4442  0.1906  0.1278
  432EMI     H4 8196   2.761   0.681   4.923  4.0947  0.3968 -0.9805
  432EMI     H5 8197   2.744   0.743   4.665  1.8250  1.4460 -1.2753
  432EMI    C1' 8198   3.022   0.701   5.051 -0.5693 -0.3992 -0.1501
  432EMI    H1' 8199   3.109   0.761   5.053 -2.0622 -1.9757 -2.5050
  432EMI    H1' 8200   2.944   0.731   5.119 -0.4310 -0.2450 -3.7970
  432EMI    H1' 8201   3.038   0.594   5.073 -0.8279 -1.5864 -0.1889
  432EMI    C1" 8202   2.995   0.824   4.562  1.2145  0.7858  0.1439
  432EMI    H1" 8203   3.094   0.855   4.549  0.2630  1.3246 -1.5045
  432EMI    H1" 8204   2.941   0.915   4.528 -1.6051  0.2034 -0.5417
  432EMI    C2" 8205   2.965   0.717   4.460 -0.3391  0.2267  0.0189
  432EMI    H2" 8206   3.037   0.635   4.468 -0.3694  1.4594  1.1325
  432EMI    H2" 8207   2.868   0.676   4.473 -1.9611  0.7255 -0.2409
  432EMI    H2" 8208   2.982   0.746   4.353 -0.3754 -1.4669 -2.4728
  433EMI     N1 8209   5.928   1.122   1.088  0.3208 -0.3912  0.6912
  433EMI     C2 8210   6.020   1.201   1.033 -0.2132  0.3984 -0.1353
  433EMI     N3 8211   6.028   1.314   1.109 -0.1763 -0.1530 -0.4383
  433EMI     C4 8212   5.938   1.303   1.214  0.3044  0.2020  0.1831
  433EMI     C5 8213   5.875   1.185   1.195 -0.4923 -0.7591  0.1820
  433EMI     H2 8214   6.065   1.201   0.938 -0.7582  0.0760  1.3661
  433EMI     H4 8215   5.928   1.363   1.299  1.6596  1.6773 -0.1218
  433EMI     H5 8216   5.807   1.139   1.260 -1.7556 -0.9389  0.9949
  433EMI    C1' 8217   6.132   1.415   1.114 -0.6688 -0.1341  1.0117
  433EMI    H1' 8218   6.223   1.371   1.149 -0.8242 -0.2791  0.1950
  433EMI    H1' 8219   6.140   1.455   1.010  2.3973  3.2282 -1.6699
  433EMI    H1' 8220   6.107   1.490   1.190  0.4637 -2.2064 -0.6849
  433EMI    C1" 8221   5.867   0.994   1.030  0.1009 -0.2108 -0.0451
  433EMI    H1" 8222   5.870   0.916   1.103  0.5522  1.1958 -1.1162
  433EMI    H1" 8223   5.931   0.960   0.955 -0.6690 -1.0608  1.9093
  433EMI    C2" 8224   5.724   1.000   0.970  0.5328  0.1395  0.1521
  433EMI    H2" 8225   5.721   1.063   0.888  1.2251 -0.7377  0.0992
  433EMI    H2" 8226   5.686   0.900   0.953 -0.8155 -2.1952 -0.3053
  433EMI    H2" 8227   5.660   1.048   1.046  0.3403  0.0185 -0.1395
  434EMI     N1 8228   0.150   3.381   4.308  0.8267  0.2016  0.2100
  434EMI     C2 8229   0.281   3.407   4.333  0.1534 -0.2758  0.3550
  434EMI     N3 8230   0.283   3.503   4.429 -0.1943  0.3754 -0.4661
  434EMI     C4 8231   0.156   3.542   4.459 -0.1404  0.2845  0.2785
  434EMI     C5 8232   0.072   3.465   4.386 -0.2461  0.8210  0.7582
  434EMI     H2 8233   0.366   3.368   4.280 -2.2568  2.0066  0.3683
  434EMI     H4 8234   0.129   3.611   4.528 -1.2456 -1.6352 -1.5205
  434EMI     H5 8235  -0.035   3.477   4.383 -1.2435  1.7059 -0.4124
  434EMI    C1' 8236   0.403   3.564   4.493  0.3132 -0.4476  0.6115
  434EMI    H1' 8237   0.479   3.582   4.417 -0.0491  0.3356  0.9471
  434EMI    H1' 8238   0.380   3.663   4.535  1.9249  0.4974 -1.3306
  434EMI    H1' 8239   0.441   3.513   4.579  0.7137  0.1194 -0.5386
  434EMI    C1" 8240   0.077   3.284   4.221  0.7184  0.5195  0.1422
  434EMI    H1" 8241   0.006   3.348   4.166 -2.0264  3.7251  0.0942
  434EMI    H1" 8242   0.026   3.210   4.282  0.7353 -1.7913 -2.0312
  434EMI    C2" 8243   0.173   3.207   4.132  0.9923  0.2445  0.5895
  434EMI    H2" 8244   0.254   3.170   4.187  0.6042  0.6284  0.7270
  434EMI    H2" 8245   0.108   3.124   4.095 -2.5592  2.0691 -1.2415
  434EMI    H2" 8246   0.206   3.269   4.045 -1.0009 -0.4798 -1.5259
  435EMI     N1 8247   3.171   2.307   1.978 -0.1056 -0.0732 -0.1469
  435EMI     C2 8248   3.146   2.231   2.087  0.7719  0.1319 -0.0959
  435EMI     N3 8249   3.253   2.147   2.101 -0.4475  0.0072  0.5223
  435EMI     C4 8250   3.352   2.184   2.011 -0.1463 -0.5995  0.0904
  435EMI     C5 8251   3.300   2.283   1.937  1.0266 -0.2912  0.1037
  435EMI     H2 8252   3.045   2.214   2.135 -0.8414  0.6828 -1.0491
  435EMI     H4 8253   3.453   2.148   1.991 -1.2189  1.0114 -0.0230
  435EMI     H5 8254   3.358   2.341   1.865  0.9318  1.1236 -0.6059
  435EMI    C1' 8255   3.271   2.030   2.187 -0.2186  0.8375  0.1289
  435EMI    H1' 8256   3.307   2.068   2.286 -1.1055 -0.2438 -0.1533
  435EMI    H1' 8257   3.172   1.984   2.213  1.9698 -0.4871 -1.2495
  435EMI    H1' 8258   3.331   1.948   2.144 -0.4724 -1.6457  0.9604
  435EMI    C1" 8259   3.084   2.407   1.915  0.3021  0.1691 -0.3433
  435EMI    H1" 8260   2.994   2.419   1.973  3.4632  2.2034 -0.1885
  435EMI    H1" 8261   3.058   2.386   1.812 -0.1146 -0.5078 -1.9782
  435EMI    C2" 8262   3.145   2.546   1.921 -0.4052 -0.4130  0.0285
  435EMI    H2" 8263   3.064   2.617   1.889 -1.0502  0.9351  1.0747
  435EMI    H2" 8264   3.188   2.567   2.014  0.2054  0.1963 -0.9578
  435EMI    H2" 8265   3.219   2.557   1.850 -2.3003 -3.6941  1.2123
  436EMI     N1 8266   5.469   1.227   2.760  0.2020 -0.2442  0.1584
  436EMI     C2 8267   5.401   1.259   2.645  0.1868 -0.9823  0.7808
  436EMI     N3 8268   5.285   1.201   2.648 -0.2647  0.2843 -0.2896
  436EMI     C4 8269   5.282   1.113   2.758 -0.4126 -0.2137 -0.0442
  436EMI     C5 8270   5.391   1.138   2.832  0.0544 -0.3984 -0.3222
  436EMI     H2 8271   5.422   1.332   2.570 -0.5906  1.3176 -1.7856
  436EMI     H4 8272   5.211   1.054   2.794  3.1669 -2.0970  2.7789
  436EMI     H5 8273   5.410   1.099   2.930  0.2925  1.9387  0.6864
  436EMI    C1' 8274   5.169   1.213   2.562  0.4870 -0.0153  0.9087
  436EMI    H1' 8275   5.112   1.296   2.595  0.6097 -0.5548  2.1265
  436EMI    H1' 8276   5.205   1.214   2.462  1.9625  1.3080  0.8885
  436EMI    H1' 8277   5.115   1.121   2.561 -0.8213 -1.8640  1.0164
  436EMI    C1" 8278   5.599   1.268   2.812 -0.5533 -0.2695 -0.0816
  436EMI    H1" 8279   5.673   1.199   2.769  1.3428  1.5872  3.7808
  436EMI    H1" 8280   5.588   1.261   2.922  1.2362  1.3356 -0.3896
  436EMI    C2" 8281   5.630   1.413   2.769  0.0966 -0.8389 -0.2610
  436EMI    H2" 8282   5.595   1.432   2.673  2.1241 -1.6865  1.7809
  436EMI    H2" 8283   5.569   1.478   2.837 -2.6174 -0.9701  1.4028
  436EMI    H2" 8284   5.736   1.439   2.778  1.4507 -0.3407  0.8260
  437EMI     N1 8285   2.937   2.949   3.544 -0.3773 -0.3370 -0.2134
  437EMI     C2 8286   2.982   3.067   3.497 -0.1588  0.6477 -0.4540
  437EMI     N3 8287   3.106   3.089   3.540 -0.0666  0.0155  0.2984
  437EMI     C4 8288   3.147   2.975   3.614  0.0318  0.0943 -0.0935
  437EMI     C5 8289   3.045   2.890   3.607  0.4975  0.1385  0.2047
  437EMI     H2 8290   2.929   3.139   3.438  1.5233  2.5531  0.6142
  437EMI     H4 8291   3.242   2.969   3.659 -1.7712  0.9102 -2.2841
  437EMI     H5 8292   3.036   2.794   3.659 -0.6422  0.0377  0.2140
  437EMI    C1' 8293   3.192   3.212   3.531  0.5857 -0.4716 -0.5174
  437EMI    H1' 8294   3.148   3.283   3.595  2.0466 -1.0720  0.8834
  437EMI    H1' 8295   3.287   3.178   3.571 -1.3131  1.0175  2.5341
  437EMI    H1' 8296   3.200   3.247   3.429 -1.1144 -2.4258  2.8834
  437EMI    C1" 8297   2.807   2.889   3.529 -0.2304 -0.4867  0.1911
  437EMI    H1" 8298   2.805   2.795   3.586 -1.2011 -0.9098 -0.9162
  437EMI    H1" 8299   2.779   2.859   3.424 -1.9623 -0.2536  0.7968
  437EMI    C2" 8300   2.700   2.982   3.581  0.4481  0.3069  0.6306
  437EMI    H2" 8301   2.707   3.080   3.537 -2.2761  1.9585 -2.4760
  437EMI    H2" 8302   2.608   2.932   3.542  2.7557  0.2607  1.0013
  437EMI    H2" 8303   2.706   2.968   3.687  0.3473 -1.1005  0.9422
  438EMI     N1 8304   6.278   0.332   4.469 -0.4414 -0.2136  0.2289
  438EMI     C2 8305   6.189   0.282   4.388 -0.1551  0.8339  0.1750
  438EMI     N3 8306   6.242   0.233   4.277  0.5278  0.0810  0.2261
  438EMI     C4 8307   6.377   0.282   4.285  0.0590  0.6711  0.0384
  438EMI     C5 8308   6.397   0.338   4.405  0.8773 -0.6117 -0.5905
  438EMI     H2 8309   6.089   0.252   4.417 -0.5970  1.8026  0.0460
  438EMI     H4 8310   6.442   0.273   4.204  2.3235  0.3849  0.8142
  438EMI     H5 8311   6.491   0.381   4.438 -1.0632 -0.9580  2.5682
  438EMI    C1' 8312   6.184   0.183   4.152 -1.0362  0.3327  0.3035
  438EMI    H1' 8313   6.081   0.150   4.175  0.4780 -1.1522 -1.3005
  438EMI    H1' 8314   6.180   0.261   4.075  0.0929 -1.5407 -1.5837
  438EMI    H1' 8315   6.248   0.101   4.118 -2.7379  2.1184 -0.9593
  438EMI    C1" 8316   6.253   0.398   4.598 -0.3116  0.0466  0.5720
  438EMI    H1" 8317   6.346   0.415   4.644 -0.4115  0.4537 -2.3374
  438EMI    H1" 8318   6.197   0.331   4.660 -2.3774 -0.9080  0.8355
  438EMI    C2" 8319   6.182   0.543   4.590  0.1861 -0.5476  0.0131
  438EMI    H2" 8320   6.236   0.627   4.537 -1.2432  4.5047  1.8744
  438EMI    H2" 8321   6.085   0.517   4.544  0.2618 -1.9402  2.7442
  438EMI    H2" 8322   6.151   0.583   4.687  2.3405  1.3825  0.7361
  439EMI     N1 8323   2.762   3.743   4.716 -0.2446 -0.2463 -0.0751
  439EMI     C2 8324   2.843   3.637   4.708  0.2585 -0.6067 -0.3532
  439EMI     N3 8325   2.965   3.676   4.669  0.3425  0.2400 -0.7180
  439EMI     C4 8326   2.954   3.809   4.651  0.6767 -0.0231  0.1226
  439EMI     C5 8327   2.832   3.855   4.677 -0.1644 -0.5943 -0.6830
  439EMI     H2 8328   2.815   3.535   4.733 -1.1515 -0.6127  0.4917
  439EMI     H4 8329   3.043   3.871   4.610  2.5186  0.8280 -1.2896
  439EMI     H5 8330   2.800   3.958   4.661 -0.7844 -0.4175  1.0175
  439EMI    C1' 8331   3.082   3.607   4.625  0.4169 -0.0124  0.4916
  439EMI    H1' 8332   3.136   3.572   4.716  1.3819  1.7690 -1.0199
  439EMI    H1' 8333   3.049   3.529   4.558 -2.0345 -0.9222  0.2903
  439EMI    H1' 8334   3.138   3.670   4.567  0.2614  0.0270 -0.7697
  439EMI    C1" 8335   2.625   3.746   4.759  0.1756 -0.5008  0.3275
  439EMI    H1" 8336   2.555   3.691   4.691  0.0270 -3.8122  1.7606
  439EMI    H1" 8337   2.608   3.847   4.771 -0.9437 -4.8006  0.3202
  439EMI    C2" 8338   2.600   3.696   4.898 -0.1618  0.9454  0.4200
  439EMI    H2" 8339   2.649   3.761   4.970 -1.9582  1.4272  2.9444
  439EMI    H2" 8340   2.497   3.706   4.912  1.7619  1.4955  2.9331
  439EMI    H2" 8341   2.625   3.587   4.907  0.8922 -2.5730 -0.3264
  440EMI     N1 8342   4.021   2.326   4.713  0.0130 -0.1994  0.0134
  440EMI     C2 8343   3.927   2.241   4.669 -0.0811 -0.0770  0.6395
  440EMI     N3 8344   3.945   2.233   4.537 -0.2064 -0.2094 -0.1998
  440EMI     C4 8345   4.047   2.305   4.498 -0.7794  0.2400 -0.1772
  440EMI     C5 8346   4.103   2.364   4.605 -0.4025 -0.7759  0.3553
  440EMI     H2 8347   3.858   2.185   4.730  0.2034  1.2106  0.5688
  440EMI     H4 8348   4.083   2.325   4.397 -1.7560 -2.4089 -0.5843
  440EMI     H5 8349   4.184   2.432   4.609 -1.9965 -0.1244  2.5740
  440EMI    C1' 8350   3.859   2.156   4.444 -0.2309  0.4183 -0.1775
  440EMI    H1' 8351   3.757   2.187   4.452  3.4526 -0.0740 -0.1681
  440EMI    H1' 8352   3.896   2.181   4.338  0.1309 -0.6131  0.5920
  440EMI    H1' 8353   3.852   2.055   4.481  0.1760  1.9011 -1.9775
  440EMI    C1" 8354   4.060   2.364   4.851 -0.0895 -0.1694 -0.6061
  440EMI    H1" 8355   3.975   2.367   4.918  4.7720  0.4634  0.3703
  440EMI    H1" 8356   4.104   2.462   4.859 -0.3924 -0.8726 -2.0928
  440EMI    C2" 8357   4.163   2.262   4.887 -0.1373 -0.2139 -1.0105
  440EMI    H2" 8358   4.124   2.160   4.875 -0.6544 -1.4334 -0.0470
  440EMI    H2" 8359   4.243   2.271   4.811  1.7826  0.4220  0.2969
  440EMI    H2" 8360   4.206   2.288   4.984  0.8249 -0.2888  2.5923
  441EMI     N1 8361   3.260   0.159   4.075  0.2288 -0.7894 -0.5189
  441EMI     C2 8362   3.353   0.141   3.978 -0.0310 -0.2510  0.2885
  441EMI     N3 8363   3.292   0.067   3.886 -0.3533  0.3792  0.1335
  441EMI     C4 8364   3.163   0.050   3.921  0.2613  0.3170 -0.1657
  441EMI     C5 8365   3.140   0.110   4.036 -0.1935 -0.9198 -0.2999
  441EMI     H2 8366   3.456   0.154   3.989  0.5659  0.5617 -1.4549
  441EMI     H4 8367   3.082   0.016   3.854 -1.2632 -2.4321 -1.4446
  441EMI     H5 8368   3.044   0.123   4.089  1.1256 -0.7894 -1.3086
  441EMI    C1' 8369   3.351  -0.006   3.776 -0.2491  0.3706  0.1270
  441EMI    H1' 8370   3.430  -0.063   3.823 -0.2984  1.1337  1.7077
  441EMI    H1' 8371   3.276  -0.074   3.723 -1.4434  2.1703 -2.0991
  441EMI    H1' 8372   3.388   0.068   3.703 -1.6232  1.1431 -0.2932
  441EMI    C1" 8373   3.283   0.227   4.200  0.0755  0.2961 -0.8065
  441EMI    H1" 8374   3.189   0.249   4.247  0.1808 -0.2666  0.8499
  441EMI    H1" 8375   3.318   0.328   4.174 -0.2973 -0.9982  1.4606
  441EMI    C2" 8376   3.372   0.155   4.295  0.5906 -0.2322 -0.2583
  441EMI    H2" 8377   3.397   0.201   4.389 -0.9033 -1.2011 -0.0319
  441EMI    H2" 8378   3.324   0.059   4.314  0.5789 -0.2389 -0.0487
  441EMI    H2" 8379   3.464   0.140   4.243 -1.7383  0.3868 -3.8954
  442EMI     N1 8380   3.589   3.874   6.096  0.2059 -0.0458 -0.5531
  442EMI     C2 8381   3.716   3.890   6.076  0.1529 -0.1877 -0.0028
  442EMI     N3 8382   3.773   3.772   6.036 -0.0349 -0.3602  0.1671
  442EMI     C4 8383   3.670   3.681   6.031  0.0680  0.4913  0.0715
  442EMI     C5 8384   3.557   3.745   6.070  0.3518 -0.5068  0.9052
  442EMI     H2 8385   3.762   3.983   6.095 -1.5306 -1.4869 -2.0215
  442EMI     H4 8386   3.680   3.580   5.996  1.6159 -1.2045 -0.9679
  442EMI     H5 8387   3.465   3.690   6.073 -1.3016  0.1255 -0.3409
  442EMI    C1' 8388   3.914   3.754   5.998 -0.0163 -0.1111 -0.8787
  442EMI    H1' 8389   3.969   3.793   6.080  1.3154  0.3448  0.2017
  442EMI    H1' 8390   3.942   3.650   5.984  1.1203 -3.7228  0.0872
  442EMI    H1' 8391   3.938   3.813   5.909 -0.8359 -0.1111 -0.3645
  442EMI    C1" 8392   3.477   3.975   6.107 -0.6828  0.7723  1.0115
  442EMI    H1" 8393   3.390   3.921   6.154 -1.3066 -1.4913 -2.4399
  442EMI    H1" 8394   3.448   3.998   6.001 -0.7105  0.1898  1.0837
  442EMI    C2" 8395   3.517   4.107   6.178 -0.1738 -0.4320 -0.3596
  442EMI    H2" 8396   3.439   4.183   6.176  1.2414 -2.4420  2.5586
  442EMI    H2" 8397   3.541   4.097   6.282 -0.4242 -0.9100 -2.5052
  442EMI    H2" 8398   3.610   4.138   6.125  0.8360  0.8364  0.0866
  443EMI     N1 8399   1.588   1.837   0.179 -0.0470  0.0933  0.4385
  443EMI     C2 8400   1.491   1.743   0.157  0.3758 -0.3137 -0.3589
  443EMI     N3 8401   1.547   1.645   0.078 -0.7342  0.1644 -0.7632
  443EMI     C4 8402   1.672   1.692   0.037  0.3143  0.0987 -0.2172
  443EMI     C5 8403   1.696   1.808   0.102  0.4216 -0.2125 -0.2240
  443EMI     H2 8404   1.398   1.736   0.202  2.2126  0.3238  2.4182
  443EMI     H4 8405   1.728   1.646  -0.046 -3.5952 -0.2937  0.1877
  443EMI     H5 8406   1.788   1.872   0.086 -1.2332  2.6563 -0.2003
  443EMI    C1' 8407   1.504   1.503   0.051  0.0290  0.5480 -0.5361
  443EMI    H1' 8408   1.513   1.484  -0.051 -1.0896  1.2011  1.3684
  443EMI    H1' 8409   1.576   1.443   0.102 -1.0395 -0.7344 -0.1958
  443EMI    H1' 8410   1.405   1.484   0.093  2.0239  0.1397 -0.3384
  443EMI    C1" 8411   1.587   1.962   0.252 -0.2643  1.3354  0.1578
  443EMI    H1" 8412   1.504   2.028   0.203  1.4911  0.9718 -0.2513
  443EMI    H1" 8413   1.695   1.996   0.248  0.5664  0.4755 -1.4234
  443EMI    C2" 8414   1.540   1.926   0.401 -0.5570 -0.7282  0.0137
  443EMI    H2" 8415   1.430   1.941   0.412 -0.8093  0.9460 -1.1744
  443EMI    H2" 8416   1.572   1.831   0.440 -0.3516  1.2382  1.4318
  443EMI    H2" 8417   1.580   1.999   0.476  0.3136  0.5155  2.3768
  444EMI     N1 8418   0.797   1.843   4.416  0.4501 -0.0741  0.0081
  444EMI     C2 8419   0.892   1.911   4.345 -0.6716 -0.4753 -0.3220
  444EMI     N3 8420   0.961   1.993   4.425 -0.0730  0.1643  0.5479
  444EMI     C4 8421   0.906   1.973   4.551 -0.5644  0.3998 -0.1768
  444EMI     C5 8422   0.806   1.882   4.543  0.7629 -0.2687 -1.0868
  444EMI     H2 8423   0.905   1.911   4.236 -2.6925  0.5626  0.4128
  444EMI     H4 8424   0.940   2.013   4.647 -1.9816  1.9413  1.2622
  444EMI     H5 8425   0.745   1.829   4.613  0.6480 -0.8544  0.5336
  444EMI    C1' 8426   1.059   2.097   4.389 -0.6601  0.4582  0.3046
  444EMI    H1' 8427   1.004   2.176   4.334 -2.8529  0.9485 -3.8480
  444EMI    H1' 8428   1.120   2.112   4.476  0.3601 -0.5447 -1.3672
  444EMI    H1' 8429   1.121   2.062   4.312  0.0230  1.4959  0.0296
  444EMI    C1" 8430   0.685   1.763   4.371  0.0528 -0.0727  0.5330
  444EMI    H1" 8431   0.610   1.769   4.450 -1.3832 -0.2005 -0.7890
  444EMI    H1" 8432   0.721   1.662   4.366 -0.5523  1.0456  1.1291
  444EMI    C2" 8433   0.626   1.817   4.244 -0.1892 -0.4955  0.8959
  444EMI    H2" 8434   0.535   1.767   4.229  2.5420  1.5841  0.6655
  444EMI    H2" 8435   0.601   1.926   4.263  0.0612  0.6479  0.3859
  444EMI    H2" 8436   0.693   1.803   4.157 -1.4613  1.3746 -0.8067
  445EMI     N1 8437   3.524   2.537   5.294 -0.0355  0.6384 -0.7198
  445EMI     C2 8438   3.532   2.400   5.289 -0.3327  0.1750  0.1773
  445EMI     N3 8439   3.487   2.346   5.400  0.2439 -0.1204 -0.6138
  445EMI     C4 8440   3.470   2.455   5.490  0.3147 -0.1972  0.3494
  445EMI     C5 8441   3.480   2.570   5.421  0.1113 -0.0965 -0.1408
  445EMI     H2 8442   3.553   2.349   5.194 -1.7535  0.1041 -1.7804
  445EMI     H4 8443   3.438   2.457   5.601  0.9040  0.6440  1.8825
  445EMI     H5 8444   3.458   2.668   5.462 -0.5761 -1.4861  1.4636
  445EMI    C1' 8445   3.464   2.207   5.430  0.0037 -1.1020 -0.6987
  445EMI    H1' 8446   3.467   2.148   5.345  0.8485  0.7634  2.1792
  445EMI    H1' 8447   3.535   2.177   5.511 -1.3072  1.8235  0.1870
  445EMI    H1' 8448   3.361   2.198   5.469  2.5504 -2.3471 -0.6720
  445EMI    C1" 8449   3.543   2.641   5.188  0.2078 -0.1272 -0.7903
  445EMI    H1" 8450   3.618   2.713   5.214 -0.7887 -1.2739 -1.4960
  445EMI    H1" 8451   3.448   2.704   5.180 -2.3411  0.6758 -1.2381
  445EMI    C2" 8452   3.563   2.581   5.058 -0.7208 -0.0504 -0.8442
  445EMI    H2" 8453   3.673   2.559   5.039  1.4572 -2.2851 -3.8987
  445EMI    H2" 8454   3.506   2.491   5.053 -1.3573  0.4573 -1.8307
  445EMI    H2" 8455   3.534   2.650   4.978  0.3500  0.0673  0.7765
  446EMI     N1 8456   1.796   3.729   4.645 -0.6079  0.0269 -0.2278
  446EMI     C2 8457   1.902   3.652   4.602  0.5634  0.4829  0.7153
  446EMI     N3 8458   2.024   3.719   4.600  0.9597 -0.4380  0.0083
  446EMI     C4 8459   1.989   3.849   4.632  0.6665 -0.1292 -1.0759
  446EMI     C5 8460   1.856   3.853   4.666 -0.7283  0.1646 -0.4388
  446EMI     H2 8461   1.906   3.554   4.582  0.5311  4.2825 -1.5179
  446EMI     H4 8462   2.059   3.933   4.632  1.9845  1.4500 -2.6833
  446EMI     H5 8463   1.803   3.944   4.698 -1.4892 -2.7617 -0.4812
  446EMI    C1' 8464   2.152   3.657   4.556  0.2151 -0.0633  0.3147
  446EMI    H1' 8465   2.223   3.659   4.637 -1.5730 -0.6370 -0.2513
  446EMI    H1' 8466   2.134   3.551   4.534  2.6354  1.0608  3.5429
  446EMI    H1' 8467   2.184   3.713   4.469 -1.0855  0.5526 -0.3572
  446EMI    C1" 8468   1.650   3.706   4.668  0.4011  0.6501 -0.1216
  446EMI    H1" 8469   1.584   3.799   4.675  1.2968 -0.6939  1.1658
  446EMI    H1" 8470   1.643   3.659   4.759 -0.7692  1.5280 -2.4612
  446EMI    C2" 8471   1.598   3.615   4.555  0.4691 -0.2662  0.0066
  446EMI    H2" 8472   1.611   3.674   4.458 -1.2597  0.5467 -1.0022
  446EMI    H2" 8473   1.654   3.520   4.549  3.5960  1.6949 -1.0465
  446EMI    H2" 8474   1.494   3.581   4.563 -1.7520  1.5885 -0.6285
  447EMI     N1 8475   4.571   2.792   4.437 -0.1135 -0.3196 -0.5314
  447EMI     C2 8476   4.637   2.901   4.482  0.1177 -0.5034  0.1500
  447EMI     N3 8477   4.647   2.997   4.383 -0.7419 -0.7086  0.2103
  447EMI     C4 8478   4.582   2.938   4.278 -0.5678 -0.1538  0.0316
  447EMI     C5 8479   4.544   2.816   4.307  0.3902  0.2663 -0.6281
  447EMI     H2 8480   4.684   2.910   4.580  2.6357 -0.0795 -1.9269
  447EMI     H4 8481   4.561   2.983   4.186 -1.0351 -0.1920  2.6135
  447EMI     H5 8482   4.494   2.746   4.238 -0.1499  1.1066  1.4687
  447EMI    C1' 8483   4.707   3.126   4.376  0.3476  0.4389 -0.5353
  447EMI    H1' 8484   4.743   3.153   4.480  0.0214  0.6297  2.2008
  447EMI    H1' 8485   4.788   3.117   4.311 -0.0133 -3.1406  2.0555
  447EMI    H1' 8486   4.641   3.207   4.352  1.0922 -0.1267 -0.7654
  447EMI    C1" 8487   4.552   2.658   4.487  0.8678 -0.2748 -0.2961
  447EMI    H1" 8488   4.551   2.593   4.395 -2.4929  2.0698  1.5500
  447EMI    H1" 8489   4.460   2.661   4.539  0.9077 -0.5732  1.7928
  447EMI    C2" 8490   4.673   2.622   4.574 -0.8779 -0.4378 -0.9135
  447EMI    H2" 8491   4.666   2.518   4.613  3.3569  0.3475 -1.5647
  447EMI    H2" 8492   4.757   2.626   4.506  0.4746 -0.2932 -3.1960
  447EMI    H2" 8493   4.679   2.696   4.648 -1.1586  0.7813 -0.9465
  448EMI     N1 8494   4.318   0.826   3.445 -0.7274 -0.1993  0.0602
  448EMI     C2 8495   4.412   0.922   3.424 -0.6704  0.2975 -0.4673
  448EMI     N3 8496   4.532   0.875   3.463  0.4153  0.3621  0.1971
  448EMI     C4 8497   4.510   0.744   3.505 -0.0749 -0.0446 -0.1438
  448EMI     C5 8498   4.378   0.722   3.505  0.4663 -0.4357 -0.6348
  448EMI     H2 8499   4.397   1.023   3.393  0.9897 -2.7799  0.7695
  448EMI     H4 8500   4.589   0.691   3.556 -0.7674  0.8348 -2.9752
  448EMI     H5 8501   4.328   0.630   3.538  1.0785 -0.9127  2.2255
  448EMI    C1' 8502   4.657   0.939   3.446  0.1120 -0.2734 -0.3520
  448EMI    H1' 8503   4.727   0.887   3.510 -0.4603  0.8862 -0.6199
  448EMI    H1' 8504   4.685   0.939   3.344 -2.2999  2.6863  0.0055
  448EMI    H1' 8505   4.641   1.036   3.472  0.4205 -2.4173  0.5615
  448EMI    C1" 8506   4.174   0.831   3.426  1.1438  0.5420 -0.0396
  448EMI    H1" 8507   4.134   0.909   3.486  0.3680 -1.7500  0.3751
  448EMI    H1" 8508   4.130   0.735   3.454 -0.0107  0.0186 -1.0756
  448EMI    C2" 8509   4.162   0.871   3.275 -0.5639  0.0908 -0.5103
  448EMI    H2" 8510   4.236   0.820   3.209 -0.3427  1.4499 -1.2890
  448EMI    H2" 8511   4.063   0.850   3.235 -0.2013 -0.6732 -0.5636
  448EMI    H2" 8512   4.181   0.979   3.264 -1.4018 -1.1371 -1.2116
  449EMI     N1 8513   6.342   5.281   3.930  0.2428 -0.1090 -0.1106
  449EMI     C2 8514   6.236   5.207   3.978 -0.6176  0.3484 -0.1745
  449EMI     N3 8515   6.274   5.103   4.037  0.6062 -0.2112  0.2528
  449EMI     C4 8516   6.406   5.092   4.022 -0.8469 -0.4134 -0.6726
  449EMI     C5 8517   6.449   5.203   3.960 -1.1254  0.2461 -0.1499
  449EMI     H2 8518   6.132   5.243   3.963  0.3174 -3.9527 -1.6471
  449EMI     H4 8519   6.461   5.011   4.068 -1.9308  1.9609 -1.9867
  449EMI     H5 8520   6.555   5.217   3.940 -1.2757  4.0029 -0.3578
  449EMI    C1' 8521   6.191   5.003   4.106  0.1080 -0.2653  0.0093
  449EMI    H1' 8522   6.262   4.955   4.165  2.1913  1.7458 -0.3964
  449EMI    H1' 8523   6.114   5.055   4.168  2.6641  3.7320  1.1680
  449EMI    H1' 8524   6.152   4.929   4.036  0.5846 -1.7861 -0.6386
  449EMI    C1" 8525   6.340   5.407   3.853  0.2045 -0.5431  0.0771
  449EMI    H1" 8526   6.412   5.472   3.904 -1.0092  0.5866  0.8741
  449EMI    H1" 8527   6.240   5.451   3.846  2.4855  2.8154 -0.9109
  449EMI    C2" 8528   6.393   5.397   3.710 -0.7426  0.3832 -0.2037
  449EMI    H2" 8529   6.487   5.344   3.715 -1.5859  1.6683  0.6610
  449EMI    H2" 8530   6.325   5.333   3.652  1.3592  0.2736  0.4561
  449EMI    H2" 8531   6.400   5.493   3.674 -0.7354  0.0597  1.2781
  450EMI     N1 8532   1.963   4.189   3.151  0.5999 -0.3567 -0.1861
  450EMI     C2 8533   2.074   4.271   3.173  0.1451 -0.1118  0.6858
  450EMI     N3 8534   2.100   4.277   3.298 -0.2313 -0.0869 -0.8950
  450EMI     C4 8535   2.005   4.206   3.370  0.3738 -0.2801  0.5204
  450EMI     C5 8536   1.923   4.150   3.281  0.5083  0.2290  0.0063
  450EMI     H2 8537   2.133   4.332   3.101 -0.9763  0.0290 -3.4949
  450EMI     H4 8538   2.009   4.202   3.477  0.4717  2.0829 -0.5197
  450EMI     H5 8539   1.833   4.087   3.306 -2.4048  0.4197  0.4965
  450EMI    C1' 8540   2.198   4.361   3.362 -0.3565 -1.0358  0.5827
  450EMI    H1' 8541   2.272   4.305   3.414 -2.8071  0.9432 -0.4691
  450EMI    H1' 8542   2.240   4.409   3.275 -1.6819 -0.7280  1.5248
  450EMI    H1' 8543   2.147   4.425   3.435  0.1820  1.7664 -0.0162
  450EMI    C1" 8544   1.886   4.145   3.033  0.0223  0.2901 -0.3000
  450EMI    H1" 8545   1.883   4.040   3.032 -1.8203  0.5655 -0.1202
  450EMI    H1" 8546   1.933   4.184   2.944 -0.0832  1.0797  0.8349
  450EMI    C2" 8547   1.737   4.194   3.034  0.0278  0.5058  0.0917
  450EMI    H2" 8548   1.697   4.190   2.930  2.3212 -1.9884  2.0357
  450EMI    H2" 8549   1.672   4.141   3.107  0.8282  2.0761 -1.9633
  450EMI    H2" 8550   1.745   4.301   3.064 -1.5867 -0.0559 -0.9971
  451EMI     N1 8551   4.045   2.478   0.114  0.5032  0.1643  0.3484
  451EMI     C2 8552   3.952   2.473   0.211  0.7510 -0.4089  0.0187
  451EMI     N3 8553   3.851   2.559   0.197 -0.3860  0.4597 -0.2757
  451EMI     C4 8554   3.883   2.631   0.080  0.1364  0.2984 -0.8683
  451EMI     C5 8555   4.002   2.582   0.035 -0.1890  0.6316  0.4133
  451EMI     H2 8556   3.960   2.394   0.289 -1.2706 -0.0617  1.4551
  451EMI     H4 8557   3.821   2.709   0.047 -1.4570 -1.6806  0.2810
  451EMI     H5 8558   4.051   2.609  -0.061 -2.5397  0.6013  0.6540
  451EMI    C1' 8559   3.726   2.587   0.276 -0.3683 -0.7933 -0.4625
  451EMI    H1' 8560   3.741   2.666   0.349  0.4528 -0.6241 -0.4953
  451EMI    H1' 8561   3.642   2.618   0.220 -0.5210  1.2017  1.8152
  451EMI    H1' 8562   3.692   2.500   0.329  2.0985  2.3353  1.2301
  451EMI    C1" 8563   4.165   2.398   0.092  0.0824 -0.0985 -0.2301
  451EMI    H1" 8564   4.248   2.405   0.169  1.4167 -0.3651 -0.7274
  451EMI    H1" 8565   4.206   2.439  -0.006 -3.2296  1.0707 -0.1062
  451EMI    C2" 8566   4.139   2.242   0.080  0.7037  0.0803  0.3896
  451EMI    H2" 8567   4.093   2.202   0.170  0.9431 -0.4834  1.4183
  451EMI    H2" 8568   4.076   2.215  -0.006 -0.5345  2.0088  1.6994
  451EMI    H2" 8569   4.236   2.196   0.051 -1.4560  3.3022 -1.6897
  452EMI     N1 8570   6.148   0.148   5.976 -0.2798 -0.3673  0.6341
  452EMI     C2 8571   6.146   0.193   6.106  0.2099 -0.3155 -0.0599
  452EMI     N3 8572   6.033   0.150   6.163 -0.3987  0.0799 -0.1225
  452EMI     C4 8573   5.954   0.086   6.071 -0.3997  0.2940 -0.3467
  452EMI     C5 8574   6.027   0.080   5.953 -0.1549  0.0539  0.4194
  452EMI     H2 8575   6.226   0.243   6.156  1.3600  1.1465  0.7891
  452EMI     H4 8576   5.867   0.032   6.105 -2.7831 -1.1193 -0.1144
  452EMI     H5 8577   6.000   0.024   5.865  0.8990  2.1177 -1.2241
  452EMI    C1' 8578   5.991   0.161   6.299  0.1732  0.4930  0.5554
  452EMI    H1' 8579   6.081   0.194   6.348 -2.8237 -1.1308 -1.0697
  452EMI    H1' 8580   5.918   0.240   6.313 -0.1104  1.9001  0.2890
  452EMI    H1' 8581   5.944   0.065   6.332 -0.6229 -0.5144 -0.5356
  452EMI    C1" 8582   6.254   0.147   5.871 -0.2174  0.2800  0.2254
  452EMI    H1" 8583   6.266   0.042   5.843 -0.4081 -1.1142  0.5698
  452EMI    H1" 8584   6.345   0.200   5.902 -1.1012 -1.8300  0.3019
  452EMI    C2" 8585   6.196   0.219   5.746 -0.5585  0.4135 -0.0685
  452EMI    H2" 8586   6.109   0.164   5.701 -0.6653 -1.2141 -1.2686
  452EMI    H2" 8587   6.164   0.321   5.774  0.7022 -2.3167  0.8690
  452EMI    H2" 8588   6.277   0.224   5.683 -0.1320 -1.0012 -0.3098
  453EMI     N1 8589   4.943   0.587   6.321  0.2941  0.3929 -0.4847
  453EMI     C2 8590   5.019   0.537   6.428  0.2666 -0.6943  0.4500
  453EMI     N3 8591   4.935   0.480   6.513  0.3729 -0.3869  0.2901
  453EMI     C4 8592   4.805   0.501   6.464  0.1234 -0.6652 -0.4007
  453EMI     C5 8593   4.807   0.573   6.351 -0.0100  0.4343 -0.7981
  453EMI     H2 8594   5.125   0.537   6.434 -0.6331  2.0173 -1.4963
  453EMI     H4 8595   4.717   0.483   6.519  1.5452 -0.3035  2.3087
  453EMI     H5 8596   4.725   0.613   6.298 -1.4128 -1.4205  3.1715
  453EMI    C1' 8597   4.950   0.424   6.647 -0.5261 -0.2744  0.6734
  453EMI    H1' 8598   5.047   0.381   6.651 -1.9420  1.6493  0.7284
  453EMI    H1' 8599   4.947   0.484   6.736 -1.2717  1.2853 -1.0817
  453EMI    H1' 8600   4.881   0.344   6.667 -0.0807 -1.5406 -0.8561
  453EMI    C1" 8601   4.984   0.645   6.186 -0.1088 -0.1924  0.2724
  453EMI    H1" 8602   5.093   0.660   6.187 -1.1327 -1.4524 -1.4864
  453EMI    H1" 8603   4.945   0.744   6.165  0.3973  1.1836  0.0040
  453EMI    C2" 8604   4.935   0.564   6.068 -0.1290  0.0103 -0.2788
  453EMI    H2" 8605   4.825   0.572   6.059  1.7034  0.1694  3.1820
  453EMI    H2" 8606   4.995   0.596   5.982  4.0891  0.3753 -0.8417
  453EMI    H2" 8607   4.947   0.454   6.086 -1.1638  1.8740  3.8440
  454EMI     N1 8608   1.319   6.047   2.368  0.3722  0.0580 -0.3525
  454EMI     C2 8609   1.391   6.120   2.452 -0.8580 -0.2033  0.1930
  454EMI     N3 8610   1.404   6.061   2.575 -0.3717  0.0617  1.2129
  454EMI     C4 8611   1.330   5.948   2.573 -0.3715  0.1754 -0.3590
  454EMI     C5 8612   1.273   5.940   2.451  0.3103  0.0820  0.3116
  454EMI     H2 8613   1.439   6.215   2.434 -2.1513  0.7576 -4.9452
  454EMI     H4 8614   1.329   5.875   2.652  2.0198 -2.5478 -1.3207
  454EMI     H5 8615   1.202   5.863   2.427 -0.5829 -1.4159  0.0266
  454EMI    C1' 8616   1.496   6.090   2.686 -0.0354  0.8474  0.6915
  454EMI    H1' 8617   1.595   6.095   2.643 -1.3002  0.0183  0.5602
  454EMI    H1' 8618   1.453   6.183   2.728 -1.6923 -3.4965  0.2944
  454EMI    H1' 8619   1.488   6.008   2.752 -0.6070 -0.3255  0.1386
  454EMI    C1" 8620   1.262   6.065   2.235 -0.1089  0.1339 -0.1511
  454EMI    H1" 8621   1.230   6.167   2.218 -2.4663  1.2567 -0.1777
  454EMI    H1" 8622   1.179   5.991   2.221  3.4755  0.6228  0.3469
  454EMI    C2" 8623   1.371   6.034   2.128 -0.5375  0.0298  0.6384
  454EMI    H2" 8624   1.461   6.092   2.164  1.7999  1.5969  3.0496
  454EMI    H2" 8625   1.390   5.925   2.119 -0.7724 -3.8799 -1.8394
  454EMI    H2" 8626   1.339   6.074   2.033  1.1477  0.6604  0.3445
  455EMI     N1 8627   6.181   1.574   3.881 -0.1152 -0.2230  0.4088
  455EMI     C2 8628   6.301   1.551   3.828 -0.7603 -0.3588  0.2551
  455EMI     N3 8629   6.293   1.516   3.701  0.2213  0.1559 -0.2897
  455EMI     C4 8630   6.159   1.523   3.670  0.3712  0.0836 -0.7181
  455EMI     C5 8631   6.090   1.562   3.780  0.6363  0.9031  0.0898
  455EMI     H2 8632   6.392   1.562   3.883  2.9044 -0.3877  1.2600
  455EMI     H4 8633   6.117   1.508   3.570  1.9270  1.0240  0.9730
  455EMI     H5 8634   5.984   1.586   3.786 -0.8612 -2.2647 -1.5957
  455EMI    C1' 8635   6.394   1.513   3.597 -0.1573  0.6188  0.6596
  455EMI    H1' 8636   6.365   1.574   3.515  2.1301 -1.5356 -0.7231
  455EMI    H1' 8637   6.491   1.545   3.637  0.4505 -0.4694  2.0248
  455EMI    H1' 8638   6.400   1.416   3.560 -0.0917 -1.3566  1.9863
  455EMI    C1" 8639   6.151   1.619   4.024  0.3953  0.7287  0.0084
  455EMI    H1" 8640   6.163   1.540   4.097 -0.8483  1.2868 -1.6165
  455EMI    H1" 8641   6.047   1.642   4.025 -2.1448  0.2723  3.5745
  455EMI    C2" 8642   6.227   1.740   4.069 -0.3069  0.9674  0.7051
  455EMI    H2" 8643   6.184   1.771   4.164 -0.6430  0.8031  2.9935
  455EMI    H2" 8644   6.335   1.708   4.085  3.3138  1.9910 -0.8952
  455EMI    H2" 8645   6.220   1.819   3.995  0.9652 -0.1219  0.5335
  456EMI     N1 8646   1.319   2.929   1.911 -0.2996  0.4015 -0.3082
  456EMI     C2 8647   1.334   2.793   1.924 -0.5785  0.4006 -0.0343
  456EMI     N3 8648   1.260   2.750   2.027 -0.2936  0.1902  0.1164
  456EMI     C4 8649   1.200   2.855   2.083  0.2913 -0.0524 -0.8316
  456EMI     C5 8650   1.230   2.968   2.012 -0.1848 -1.0199  0.2841
  456EMI     H2 8651   1.412   2.733   1.876 -0.5976  1.1254  0.2911
  456EMI     H4 8652   1.131   2.847   2.168  0.5427 -3.3385 -1.3782
  456EMI     H5 8653   1.195   3.065   2.028  0.5272 -1.1891 -1.1846
  456EMI    C1' 8654   1.239   2.611   2.070 -0.6201 -0.6132 -0.7517
  456EMI    H1' 8655   1.146   2.608   2.130  0.8216  0.4553 -1.1246
  456EMI    H1' 8656   1.216   2.563   1.981 -1.2365 -0.1226  3.0852
  456EMI    H1' 8657   1.328   2.576   2.122 -1.9102  0.8055  0.7251
  456EMI    C1" 8658   1.378   3.028   1.813  0.1925 -0.5425  1.1110
  456EMI    H1" 8659   1.300   3.087   1.772  1.2542 -2.8241 -1.3302
  456EMI    H1" 8660   1.416   2.970   1.730 -1.8842  3.5712 -0.2653
  456EMI    C2" 8661   1.506   3.104   1.860  0.0359  0.2188 -0.0846
  456EMI    H2" 8662   1.585   3.024   1.865 -1.8715 -3.2116 -0.2245
  456EMI    H2" 8663   1.531   3.180   1.784 -1.5560  0.1864 -3.1503
  456EMI    H2" 8664   1.481   3.146   1.957  1.5212 -0.5371  0.5780
  457EMI     N1 8665   0.071   2.649   5.238  0.0278  0.3810  0.7258
  457EMI     C2 8666   0.034   2.693   5.361 -0.1058  0.3107 -0.1373
  457EMI     N3 8667   0.119   2.637   5.448  0.3915 -0.2129  0.4101
  457EMI     C4 8668   0.209   2.553   5.377  0.7955 -0.1512  0.5744
  457EMI     C5 8669   0.170   2.552   5.246  0.1585 -0.6104  0.0753
  457EMI     H2 8670  -0.033   2.769   5.393  0.5515  1.4680 -2.1544
  457EMI     H4 8671   0.287   2.495   5.428 -1.5271  1.1785 -0.9281
  457EMI     H5 8672   0.225   2.501   5.165  1.2298 -0.5494 -2.8158
  457EMI    C1' 8673   0.136   2.653   5.596  0.4600  0.7653 -0.1287
  457EMI    H1' 8674   0.203   2.578   5.629 -1.9183 -1.9514  0.3387
  457EMI    H1' 8675   0.163   2.748   5.626  1.9976 -1.3215 -1.8528
  457EMI    H1' 8676   0.037   2.637   5.642 -1.5291  3.0670 -0.2140
  457EMI    C1" 8677   0.024   2.690   5.102  0.2240 -0.0245  0.0617
  457EMI    H1" 8678   0.118   2.687   5.039 -0.0915 -0.7683 -0.8519
  457EMI    H1" 8679  -0.011   2.791   5.112 -0.5541  1.5091  1.3412
  457EMI    C2" 8680  -0.068   2.580   5.041  0.0887 -0.0844 -0.4797
  457EMI    H2" 8681  -0.149   2.540   5.104 -0.3437  0.3971  0.1089
  457EMI    H2" 8682  -0.124   2.618   4.954  2.7693 -2.7771 -1.0261
  457EMI    H2" 8683   0.005   2.498   5.001  4.6525 -3.8679  0.1524
  458EMI     N1 8684   5.284   0.090   5.647  0.1238  0.7464 -0.0687
  458EMI     C2 8685   5.285   0.184   5.555 -1.3857  0.0308  0.0007
  458EMI     N3 8686   5.268   0.135   5.432  0.1743 -0.5038  0.0369
  458EMI     C4 8687   5.271  -0.004   5.441 -0.1311  0.0631  0.1340
  458EMI     C5 8688   5.280  -0.034   5.573 -0.8394 -1.0609 -0.1717
  458EMI     H2 8689   5.288   0.289   5.578 -4.1662 -2.0240  2.3350
  458EMI     H4 8690   5.268  -0.074   5.359  0.9664 -1.6744 -0.4678
  458EMI     H5 8691   5.286  -0.132   5.611  1.7334 -0.7052 -1.6052
  458EMI    C1' 8692   5.244   0.213   5.306 -0.5162  0.6060  0.3610
  458EMI    H1' 8693   5.136   0.233   5.314  1.7821  0.2995  3.1273
  458EMI    H1' 8694   5.309   0.301   5.318 -2.0947  0.7049 -0.3383
  458EMI    H1' 8695   5.268   0.151   5.220  0.9791  0.9926 -2.3029
  458EMI    C1" 8696   5.287   0.089   5.790 -0.1564  0.1665 -0.4397
  458EMI    H1" 8697   5.295   0.191   5.825  2.5327  2.5203  0.9142
  458EMI    H1" 8698   5.377   0.052   5.835 -1.1417 -0.1467  0.2544
  458EMI    C2" 8699   5.178   0.009   5.862  0.3528 -0.1971  0.1652
  458EMI    H2" 8700   5.087   0.067   5.848  1.7228  1.2483 -0.8311
  458EMI    H2" 8701   5.177  -0.097   5.821 -0.8306 -1.4760 -0.4130
  458EMI    H2" 8702   5.194  -0.001   5.968 -0.4235 -0.4965 -0.4939
  459EMI     N1 8703   5.776   0.849   5.491 -0.7025 -0.2300 -0.1689
  459EMI     C2 8704   5.899   0.891   5.538  0.5696 -1.0860  0.3285
  459EMI     N3 8705   5.960   0.798   5.618  0.0074  0.0694  1.0588
  459EMI     C4 8706   5.877   0.685   5.607  0.7511  0.8210  0.1541
  459EMI     C5 8707   5.768   0.718   5.527  0.1371  1.1799 -0.7570
  459EMI     H2 8708   5.945   0.987   5.512 -1.7881  3.8513 -0.2337
  459EMI     H4 8709   5.906   0.585   5.653 -0.8319 -0.7065 -0.8705
  459EMI     H5 8710   5.682   0.659   5.504 -1.6113  0.2547  3.2259
  459EMI    C1' 8711   6.064   0.815   5.724  0.0989 -0.0384 -0.0674
  459EMI    H1' 8712   6.032   0.769   5.813 -0.9122 -1.2339  4.0187
  459EMI    H1' 8713   6.160   0.770   5.699  0.1995  0.9849 -0.9182
  459EMI    H1' 8714   6.094   0.915   5.734 -0.9627 -0.4534  0.2546
  459EMI    C1" 8715   5.694   0.908   5.389  0.4736  0.0521  1.0084
  459EMI    H1" 8716   5.725   1.010   5.373  1.1663  0.2637 -1.0512
  459EMI    H1" 8717   5.593   0.921   5.429  1.1866  0.8127  0.7970
  459EMI    C2" 8718   5.692   0.829   5.258 -0.2598 -0.0578 -0.6635
  459EMI    H2" 8719   5.629   0.748   5.270 -2.0323 -2.1018  1.7395
  459EMI    H2" 8720   5.649   0.886   5.176  3.4822  1.8148 -2.7508
  459EMI    H2" 8721   5.792   0.800   5.231 -1.2510 -1.8879  6.9512
  460EMI     N1 8722   5.220   0.601   3.772  0.1404 -0.8318  0.6756
  460EMI     C2 8723   5.183   0.699   3.859  0.1638 -0.0456 -0.8331
  460EMI     N3 8724   5.292   0.765   3.900  0.0258 -0.2448 -0.7271
  460EMI     C4 8725   5.401   0.717   3.823 -0.0274  0.3885 -0.6523
  460EMI     C5 8726   5.353   0.627   3.738 -0.0110 -0.1587  0.7126
  460EMI     H2 8727   5.082   0.709   3.902 -1.2033  0.9367 -0.7263
  460EMI     H4 8728   5.506   0.763   3.835  4.4840 -2.1453 -0.2642
  460EMI     H5 8729   5.415   0.555   3.684 -1.4438 -3.6154 -0.3557
  460EMI    C1' 8730   5.297   0.884   3.989 -0.0619 -0.1754  1.3184
  460EMI    H1' 8731   5.295   0.847   4.089  0.7542  1.0481 -2.8006
  460EMI    H1' 8732   5.393   0.935   3.967  0.1498 -1.8932 -1.7188
  460EMI    H1' 8733   5.207   0.951   3.975  0.0247 -0.1544 -3.1738
  460EMI    C1" 8734   5.140   0.501   3.692  0.1659 -0.0273 -0.1852
  460EMI    H1" 8735   5.187   0.472   3.602  0.6292  0.9367 -1.9546
  460EMI    H1" 8736   5.052   0.559   3.651 -3.5502  0.4878  2.1359
  460EMI    C2" 8737   5.094   0.386   3.786  0.1375  0.4252  0.1595
  460EMI    H2" 8738   5.002   0.348   3.746  0.3902  1.3368  2.5465
  460EMI    H2" 8739   5.175   0.314   3.780 -0.5747  0.8382  2.7631
  460EMI    H2" 8740   5.085   0.410   3.888 -0.0205 -1.7788 -0.2586
  461EMI     N1 8741   4.191   2.422   0.741  0.5422 -0.6300  0.0630
  461EMI     C2 8742   4.239   2.546   0.766  0.2677  0.6140  0.4585
  461EMI     N3 8743   4.299   2.546   0.884 -0.6062 -0.7022  0.6032
  461EMI     C4 8744   4.283   2.418   0.938 -0.1137 -0.0489  0.9893
  461EMI     C5 8745   4.220   2.340   0.848  0.0703 -0.2660  0.6189
  461EMI     H2 8746   4.230   2.627   0.696  1.0654 -2.2849 -0.3331
  461EMI     H4 8747   4.329   2.384   1.027  0.5646 -0.3146 -0.5116
  461EMI     H5 8748   4.193   2.241   0.854  0.9989  2.6722  0.0053
  461EMI    C1' 8749   4.365   2.659   0.960  0.1665  0.1685 -0.1263
  461EMI    H1' 8750   4.443   2.608   1.021 -1.2643  0.8713 -0.1737
  461EMI    H1' 8751   4.415   2.725   0.897  2.2356 -2.2275 -1.2875
  461EMI    H1' 8752   4.299   2.704   1.031  1.2346  0.2821  1.5440
  461EMI    C1" 8753   4.105   2.373   0.635  0.2819 -0.6743  0.3388
  461EMI    H1" 8754   4.015   2.436   0.621  0.7150 -2.0717  0.9017
  461EMI    H1" 8755   4.071   2.275   0.662 -1.5370 -0.7062 -0.3154
  461EMI    C2" 8756   4.176   2.366   0.496  0.6254  0.5324  0.2996
  461EMI    H2" 8757   4.207   2.466   0.471  1.4456 -0.6111 -0.0245
  461EMI    H2" 8758   4.256   2.296   0.497 -0.7144  1.3820 -2.4893
  461EMI    H2" 8759   4.099   2.346   0.420 -3.6831  1.2822  2.0903
  462EMI     N1 8760   5.798   0.835   3.289 -0.4200  0.0006 -0.2649
  462EMI     C2 8761   5.899   0.806   3.208  0.8477 -0.2152  0.2129
  462EMI     N3 8762   5.990   0.734   3.275 -0.6504 -0.4161 -0.0348
  462EMI     C4 8763   5.953   0.726   3.407 -0.2389 -0.0886 -0.4330
  462EMI     C5 8764   5.838   0.791   3.417  0.5301  0.2828 -0.4442
  462EMI     H2 8765   5.889   0.841   3.106  1.4258 -0.9316  0.3982
  462EMI     H4 8766   6.021   0.679   3.479 -0.9061 -2.2768 -1.8059
  462EMI     H5 8767   5.774   0.815   3.503 -2.4555 -1.1442 -2.7974
  462EMI    C1' 8768   6.113   0.673   3.221 -0.2869 -0.1169 -0.8880
  462EMI    H1' 8769   6.118   0.686   3.115  0.3225 -0.3765 -1.1826
  462EMI    H1' 8770   6.193   0.728   3.276  2.0056  0.0827 -2.1072
  462EMI    H1' 8771   6.128   0.566   3.239  0.6972 -0.2838 -2.2170
  462EMI    C1" 8772   5.668   0.908   3.268 -0.0349  0.4473 -0.1511
  462EMI    H1" 8773   5.685   0.983   3.192  0.7141 -0.4188  1.6527
  462EMI    H1" 8774   5.635   0.963   3.359 -0.2233 -0.1426  2.4295
  462EMI    C2" 8775   5.553   0.814   3.236 -0.0667  0.3093  0.3632
  462EMI    H2" 8776   5.547   0.721   3.306 -0.3274 -1.1760  1.5285
  462EMI    H2" 8777   5.463   0.870   3.240 -4.4982 -1.2530  0.6917
  462EMI    H2" 8778   5.555   0.790   3.128  0.1958 -0.6776  0.4268
  463EMI     N1 8779   3.535   2.951   0.400 -0.1280  0.3292  0.2703
  463EMI     C2 8780   3.471   3.011   0.300 -0.3842  0.3883  0.7548
  463EMI     N3 8781   3.414   2.919   0.225  0.1479 -0.2251  0.2679
  463EMI     C4 8782   3.420   2.798   0.292 -0.4693 -0.0274  0.0221
  463EMI     C5 8783   3.502   2.819   0.398  0.2440  0.3775 -0.6304
  463EMI     H2 8784   3.476   3.115   0.290 -1.2232  2.4324  0.3603
  463EMI     H4 8785   3.379   2.704   0.250 -0.9814 -1.6302 -0.3433
  463EMI     H5 8786   3.537   2.738   0.456  0.2163  1.0549 -0.3349
  463EMI    C1' 8787   3.351   2.929   0.095 -0.5149  0.2877 -0.7832
  463EMI    H1' 8788   3.290   3.017   0.081  2.5132  0.4089  3.8945
  463EMI    H1' 8789   3.420   2.921   0.018  2.1286  1.7446 -0.0511
  463EMI    H1' 8790   3.281   2.853   0.095  2.3700  0.5740  0.7804
  463EMI    C1" 8791   3.624   3.003   0.506  0.8728 -0.1106 -0.1016
  463EMI    H1" 8792   3.642   2.941   0.589  1.1586 -1.2694  1.7880
  463EMI    H1" 8793   3.573   3.095   0.537 -0.2317 -2.2657 -0.7425
  463EMI    C2" 8794   3.754   3.027   0.443  0.0993  0.8302 -0.3802
  463EMI    H2" 8795   3.825   3.052   0.511 -1.2320 -0.9837 -2.1505
  463EMI    H2" 8796   3.783   2.939   0.388  0.2961  3.3740 -0.9269
  463EMI    H2" 8797   3.753   3.108   0.365 -0.9672 -2.1679 -2.2175
  464EMI     N1 8798   0.087   0.411   1.881 -0.2411 -0.4654 -0.0763
  464EMI     C2 8799   0.004   0.370   1.781 -0.1692 -0.7018 -0.5170
  464EMI     N3 8800  -0.045   0.249   1.809  0.3738 -0.3709 -0.7938
  464EMI     C4 8801   0.017   0.208   1.929 -0.3475 -0.5458 -0.1015
  464EMI     C5 8802   0.097   0.305   1.974  0.3681  0.2943  0.0653
  464EMI     H2 8803  -0.025   0.438   1.702  0.7094 -2.5571 -1.9666
  464EMI     H4 8804   0.003   0.115   1.979  1.6232 -0.6125 -0.4851
  464EMI     H5 8805   0.143   0.313   2.070 -0.5784 -0.0575 -3.0550
  464EMI    C1' 8806  -0.147   0.163   1.741 -0.2120 -0.1991  0.0529
  464EMI    H1' 8807  -0.104   0.088   1.669  0.5234 -0.2795  0.7462
  464EMI    H1' 8808  -0.211   0.110   1.810  1.4323 -1.4615  0.3093
  464EMI    H1' 8809  -0.220   0.221   1.686  0.3488  0.8959  1.9079
  464EMI    C1" 8810   0.151   0.547   1.907 -0.3706  0.4386 -0.3279
  464EMI    H1" 8811   0.099   0.617   1.846  0.5837 -1.2711 -1.3575
  464EMI    H1" 8812   0.258   0.549   1.881 -0.0825  1.4155 -0.8959
  464EMI    C2" 8813   0.136   0.584   2.053  0.6275 -0.2000  0.4306
  464EMI    H2" 8814   0.024   0.567   2.081 -1.5435 -2.1941 -1.7906
  464EMI    H2" 8815   0.191   0.516   2.105 -2.0996  2.2513 -0.6189
  464EMI    H2" 8816   0.172   0.685   2.060 -1.3741  1.5580 -0.9445
  465EMI     N1 8817   3.830   0.160   6.196  0.0649 -0.8406 -0.2599
  465EMI     C2 8818   3.705   0.122   6.230 -0.4202  0.5457  0.5479
  465EMI     N3 8819   3.669   0.010   6.167  0.8628  0.4237 -0.6378
  465EMI     C4 8820   3.776  -0.027   6.086 -0.5542 -0.8034 -0.0355
  465EMI     C5 8821   3.874   0.068   6.103 -0.1862 -0.4048 -0.3452
  465EMI     H2 8822   3.645   0.174   6.303  0.1749 -2.0666 -0.6057
  465EMI     H4 8823   3.774  -0.113   6.019  0.9648 -1.5622  1.4765
  465EMI     H5 8824   3.960   0.073   6.047 -2.6078  1.0444  2.9346
  465EMI    C1' 8825   3.541  -0.072   6.173 -0.4108  0.5074  0.4309
  465EMI    H1' 8826   3.558  -0.168   6.231 -0.2474 -1.8955  0.8116
  465EMI    H1' 8827   3.456  -0.019   6.207  2.1256 -1.3368  2.0829
  465EMI    H1' 8828   3.527  -0.116   6.076 -2.5929 -0.7200 -1.1381
  465EMI    C1" 8829   3.906   0.286   6.234 -0.2498 -0.2340 -0.2437
  465EMI    H1" 8830   4.006   0.271   6.201 -1.2637  1.7624 -3.2303
  465EMI    H1" 8831   3.906   0.318   6.341 -2.5898 -0.0306  0.3135
  465EMI    C2" 8832   3.868   0.406   6.148  0.0359 -0.1982  0.2746
  465EMI    H2" 8833   3.760   0.421   6.150  0.6270 -0.0421 -2.3947
  465EMI    H2" 8834   3.913   0.497   6.184 -1.7383  2.0292 -2.1285
  465EMI    H2" 8835   3.901   0.393   6.048 -1.1856  0.0256 -0.0290
  466EMI     N1 8836   6.086   2.134   2.553 -0.1907 -0.3841  0.3656
  466EMI     C2 8837   6.023   2.143   2.669 -0.4597  0.1147  0.9696
  466EMI     N3 8838   6.002   2.267   2.701  0.0813  0.0158 -0.5533
  466EMI     C4 8839   6.064   2.342   2.607  0.0817  0.3169 -0.3229
  466EMI     C5 8840   6.107   2.264   2.514  0.3004  0.0913  0.3068
  466EMI     H2 8841   5.987   2.059   2.722 -0.7143  2.6025 -0.9845
  466EMI     H4 8842   6.069   2.447   2.598 -0.3454 -2.5880  0.8827
  466EMI     H5 8843   6.155   2.292   2.424 -0.9123  0.9571 -0.3247
  466EMI    C1' 8844   5.949   2.334   2.822 -0.2206 -0.1153 -0.8994
  466EMI    H1' 8845   5.841   2.325   2.818 -2.7799  4.3112 -1.2508
  466EMI    H1' 8846   5.981   2.285   2.912 -2.5203  1.0057 -2.0585
  466EMI    H1' 8847   5.979   2.444   2.825  0.6417  0.5430 -2.7645
  466EMI    C1" 8848   6.135   2.018   2.479  0.2869 -0.6633 -0.4107
  466EMI    H1" 8849   6.134   1.934   2.550  2.1078 -0.0201  0.2988
  466EMI    H1" 8850   6.238   2.042   2.443 -0.2177  0.2680  3.5967
  466EMI    C2" 8851   6.046   1.977   2.364 -0.4696  0.7580 -0.6019
  466EMI    H2" 8852   6.041   2.058   2.285 -0.0757  0.0565 -0.5796
  466EMI    H2" 8853   6.068   1.881   2.323 -0.4546  2.6364  1.9449
  466EMI    H2" 8854   5.944   1.973   2.404  0.5213 -0.9365  0.7910
  467EMI     N1 8855   3.135   1.623   5.946  0.8333 -0.3103  0.2538
  467EMI     C2 8856   3.243   1.655   6.022 -0.7526  0.2637 -0.4546
  467EMI     N3 8857   3.334   1.552   6.014  0.0658  0.0213  0.0082
  467EMI     C4 8858   3.274   1.456   5.936 -0.2527 -0.1610 -0.0426
  467EMI     C5 8859   3.154   1.501   5.889 -1.4346  0.1351 -0.6469
  467EMI     H2 8860   3.246   1.738   6.090 -1.6177 -1.1780  1.6080
  467EMI     H4 8861   3.306   1.350   5.919 -0.3242 -1.5788  0.9690
  467EMI     H5 8862   3.081   1.443   5.832  1.6941  0.5371 -2.6207
  467EMI    C1' 8863   3.441   1.509   6.113  0.4809 -0.1232 -0.1269
  467EMI    H1' 8864   3.380   1.505   6.208  1.6317 -2.3355 -0.9559
  467EMI    H1' 8865   3.480   1.413   6.085 -0.8261  0.7660  2.6213
  467EMI    H1' 8866   3.514   1.592   6.118  0.3379  0.6086 -1.7043
  467EMI    C1" 8867   3.018   1.711   5.913  0.0312  0.6336 -0.2636
  467EMI    H1" 8868   2.971   1.673   5.830  1.4270  0.1201  1.0471
  467EMI    H1" 8869   3.074   1.800   5.883  1.9590 -1.2587  1.3656
  467EMI    C2" 8870   2.914   1.745   6.030 -0.4275 -0.2659  0.0866
  467EMI    H2" 8871   2.964   1.760   6.124 -3.1370  0.6219 -2.5963
  467EMI    H2" 8872   2.852   1.829   5.993  1.8214 -0.2700 -0.1826
  467EMI    H2" 8873   2.850   1.659   6.043  2.3160 -0.7085  1.0036
  468EMI     N1 8874   3.880   4.631   4.946  0.0241  0.9176 -0.6223
  468EMI     C2 8875   4.005   4.631   4.899  0.7029  0.2463 -0.5825
  468EMI     N3 8876   4.021   4.533   4.810  0.2031 -0.4791 -0.3496
  468EMI     C4 8877   3.899   4.478   4.788  0.4727  0.1745  0.1364
  468EMI     C5 8878   3.812   4.534   4.876 -0.0908 -0.4526  0.3277
  468EMI     H2 8879   4.087   4.691   4.939  0.3844 -3.2835  0.0676
  468EMI     H4 8880   3.869   4.402   4.724  0.2875  1.2473 -0.0222
  468EMI     H5 8881   3.707   4.512   4.888  1.7447  0.2710  0.7810
  468EMI    C1' 8882   4.146   4.494   4.744 -0.3239 -0.4989 -0.6185
  468EMI    H1' 8883   4.173   4.578   4.683 -3.5367  0.2858  0.2140
  468EMI    H1' 8884   4.213   4.462   4.824 -0.5176 -1.9696  1.0305
  468EMI    H1' 8885   4.141   4.406   4.688  2.8852  0.4629  0.6928
  468EMI    C1" 8886   3.838   4.705   5.066 -0.1369  0.1553  1.1505
  468EMI    H1" 8887   3.802   4.800   5.034  3.1784 -0.3503  0.9153
  468EMI    H1" 8888   3.920   4.723   5.134  1.1548 -0.8666  1.2722
  468EMI    C2" 8889   3.725   4.631   5.138  0.2251  0.1418 -0.8433
  468EMI    H2" 8890   3.756   4.530   5.172 -1.0169  2.4791 -4.6207
  468EMI    H2" 8891   3.687   4.697   5.219 -1.8084  2.7804 -1.3708
  468EMI    H2" 8892   3.643   4.616   5.073 -1.8105 -3.3901  0.8506
  469EMI     N1 8893   0.706   1.520   5.947  0.0741 -0.3472  0.1473
  469EMI     C2 8894   0.662   1.568   5.827 -0.5858  0.5323 -0.9624
  469EMI     N3 8895   0.757   1.554   5.735 -0.1160 -0.6663 -0.1218
  469EMI     C4 8896   0.860   1.492   5.791 -0.4711  0.0842  0.2157
  469EMI     C5 8897   0.834   1.478   5.919 -0.1029 -0.0397 -0.0306
  469EMI     H2 8898   0.566   1.607   5.814  0.8854 -0.9953 -0.9171
  469EMI     H4 8899   0.950   1.469   5.736  2.0978  4.3039 -0.3390
  469EMI     H5 8900   0.910   1.444   5.992  1.5194  0.2122  2.6162
  469EMI    C1' 8901   0.754   1.558   5.592 -0.1862 -0.0030  0.4574
  469EMI    H1' 8902   0.840   1.628   5.566  3.1851 -1.4604 -0.8138
  469EMI    H1' 8903   0.750   1.463   5.538  2.5889 -0.1079  1.7724
  469EMI    H1' 8904   0.662   1.598   5.564 -2.8733  1.1560 -0.3561
  469EMI    C1" 8905   0.659   1.517   6.088  0.8905 -0.6296 -0.3473
  469EMI    H1" 8906   0.714   1.581   6.151 -1.9681 -1.9325 -2.0789
  469EMI    H1" 8907   0.671   1.414   6.119 -4.4989 -0.8045 -0.1576
  469EMI    C2" 8908   0.510   1.547   6.100 -1.2388  0.7540  0.3732
  469EMI    H2" 8909   0.446   1.501   6.012 -1.0333 -3.6144 -0.5467
  469EMI    H2" 8910   0.481   1.500   6.191 -0.2831  3.6378 -3.6230
  469EMI    H2" 8911   0.503   1.653   6.103  3.5921 -4.7318  2.6280
  470EMI     N1 8912   5.857   2.397   3.793 -0.1695 -0.4553 -0.1928
  470EMI     C2 8913   5.776   2.500   3.816  0.1603  0.1988  0.1730
  470EMI     N3 8914   5.660   2.481   3.753 -0.6104  0.2249  0.2167
  470EMI     C4 8915   5.680   2.375   3.673  0.6250  0.3262  0.4043
  470EMI     C5 8916   5.799   2.322   3.699 -0.4226  0.1986 -0.0616
  470EMI     H2 8917   5.798   2.571   3.889  0.7892 -0.3522 -3.6032
  470EMI     H4 8918   5.599   2.342   3.605  0.5844 -0.4090 -2.5933
  470EMI     H5 8919   5.846   2.243   3.639 -0.9730  1.3199 -1.3317
  470EMI    C1' 8920   5.524   2.537   3.781  0.0163  0.1867 -0.0131
  470EMI    H1' 8921   5.450   2.491   3.728  0.9549  0.1086  3.4631
  470EMI    H1' 8922   5.506   2.523   3.884 -0.2210  1.4994 -1.7935
  470EMI    H1' 8923   5.526   2.642   3.759 -1.1225 -1.1329 -0.4888
  470EMI    C1" 8924   5.984   2.357   3.862 -0.9866  0.2177 -0.2954
  470EMI    H1" 8925   6.057   2.431   3.841 -0.7719  0.1120  2.7673
  470EMI    H1" 8926   6.025   2.268   3.819 -0.0696  0.6011  1.4132
  470EMI    C2" 8927   5.963   2.343   4.012  0.5792  0.6070 -0.2835
  470EMI    H2" 8928   6.056   2.340   4.064 -1.1313  0.8453 -0.9111
  470EMI    H2" 8929   5.909   2.431   4.034  2.8213  1.5657  2.2739
  470EMI    H2" 8930   5.903   2.256   4.039  0.5692 -1.1936  2.3401
  471EMI     N1 8931   0.176   5.852   1.794  0.6150 -0.1515  0.1016
  471EMI     C2 8932   0.100   5.952   1.751 -0.3427 -0.5899  0.2903
  471EMI     N3 8933   0.124   5.977   1.619  0.9646 -0.8789  0.2134
  471EMI     C4 8934   0.218   5.887   1.582 -0.2948 -0.5729  0.9073
  471EMI     C5 8935   0.250   5.807   1.691  0.3887 -0.2046  0.0276
  471EMI     H2 8936   0.031   6.012   1.812  2.1880 -0.2078  4.5494
  471EMI     H4 8937   0.274   5.892   1.487  1.6940  0.3805  2.0730
  471EMI     H5 8938   0.325   5.730   1.707  0.7135  1.5343 -1.4229
  471EMI    C1' 8939   0.069   6.081   1.529 -0.0303  0.0299 -0.0462
  471EMI    H1' 8940   0.122   6.084   1.436 -0.4031 -1.1419  1.0135
  471EMI    H1' 8941  -0.025   6.043   1.497  2.4841 -0.4100 -3.2853
  471EMI    H1' 8942   0.049   6.167   1.583  3.8285 -0.3373  0.7189
  471EMI    C1" 8943   0.197   5.797   1.935 -0.0175 -0.0360  0.0089
  471EMI    H1" 8944   0.278   5.854   1.988  0.0782 -2.0274 -1.9337
  471EMI    H1" 8945   0.218   5.694   1.936 -1.2240 -1.8849  2.1229
  471EMI    C2" 8946   0.074   5.814   2.027  0.7902 -0.4248  0.1387
  471EMI    H2" 8947  -0.021   5.791   1.976  0.3117 -1.4549 -0.0004
  471EMI    H2" 8948   0.094   5.748   2.113  0.2792  2.6835  0.3300
  471EMI    H2" 8949   0.071   5.920   2.061 -0.1890 -1.0544 -1.8633
  472EMI     N1 8950   3.080   1.163   4.751  0.2551 -0.2035 -0.2528
  472EMI     C2 8951   2.993   1.141   4.846  0.3398 -0.3893 -0.2089
  472EMI     N3 8952   2.869   1.116   4.797  0.2847  0.4577 -0.3070
  472EMI     C4 8953   2.876   1.149   4.664  0.4134  0.7828 -0.9031
  472EMI     C5 8954   3.005   1.182   4.634  0.1820 -0.4013  0.0449
  472EMI     H2 8955   3.015   1.140   4.949 -0.5914  1.2746 -0.3300
  472EMI     H4 8956   2.788   1.157   4.605 -0.3288  0.1485 -1.8027
  472EMI     H5 8957   3.040   1.221   4.542 -0.4761  1.7382  0.1459
  472EMI    C1' 8958   2.751   1.070   4.865  0.0697 -0.3318 -0.1108
  472EMI    H1' 8959   2.684   1.016   4.788  1.1345 -0.0111 -1.4191
  472EMI    H1' 8960   2.779   0.998   4.941 -1.5462 -0.1240  0.7673
  472EMI    H1' 8961   2.705   1.156   4.922 -0.9338  1.9168  1.2003
  472EMI    C1" 8962   3.221   1.198   4.768 -0.3990 -0.1951  0.0782
  472EMI    H1" 8963   3.276   1.200   4.677 -0.4121 -0.4302 -0.9690
  472EMI    H1" 8964   3.260   1.124   4.841  0.3405 -1.3296  0.5602
  472EMI    C2" 8965   3.226   1.331   4.832  0.2038 -0.5155  1.0062
  472EMI    H2" 8966   3.319   1.333   4.890 -1.8695  1.5329 -1.7570
  472EMI    H2" 8967   3.224   1.408   4.762 -0.1676 -1.2736  1.1162
  472EMI    H2" 8968   3.150   1.354   4.907 -1.8893  0.6540 -0.1770
  473EMI     N1 8969   5.090   3.080   2.936  0.5404 -0.4852 -0.0562
  473EMI     C2 8970   5.198   3.124   2.997  0.3945 -0.1416  0.3618
  473EMI     N3 8971   5.217   3.253   2.969 -0.5667 -0.9164 -0.3325
  473EMI     C4 8972   5.126   3.287   2.883 -0.1759 -0.9601  0.5749
  473EMI     C5 8973   5.045   3.186   2.854  1.0029  0.3408  0.0689
  473EMI     H2 8974   5.263   3.065   3.061 -0.3004 -3.5634 -2.5888
  473EMI     H4 8975   5.123   3.390   2.842  0.3739 -1.0336 -3.7553
  473EMI     H5 8976   4.967   3.185   2.784 -0.4326  1.4961 -1.4133
  473EMI    C1' 8977   5.325   3.343   3.013 -0.3573 -0.1419  0.3409
  473EMI    H1' 8978   5.412   3.271   3.012  2.1282  1.2210 -0.3732
  473EMI    H1' 8979   5.347   3.416   2.934 -0.1684  2.6564 -0.1600
  473EMI    H1' 8980   5.323   3.375   3.117  2.2550  1.9990  0.1588
  473EMI    C1" 8981   5.035   2.944   2.933  0.6451 -0.1428  0.0112
  473EMI    H1" 8982   5.110   2.861   2.906  0.4382 -1.0436 -2.7101
  473EMI    H1" 8983   4.950   2.946   2.866  0.3291  3.0842 -1.6998
  473EMI    C2" 8984   4.980   2.899   3.069 -0.7757  0.3313 -0.2580
  473EMI    H2" 8985   4.946   2.797   3.061  1.1867 -0.0671  1.1030
  473EMI    H2" 8986   5.061   2.890   3.134  0.5323  0.6178 -0.6825
  473EMI    H2" 8987   4.906   2.972   3.093  1.8654 -1.1120  2.2167
  474EMI     N1 8988   4.428   3.706   5.374 -0.0156  0.1909 -0.5920
  474EMI     C2 8989   4.388   3.588   5.329 -0.1653  0.1201  0.1280
  474EMI     N3 8990   4.255   3.579   5.326 -1.0364  0.1449  0.2973
  474EMI     C4 8991   4.208   3.690   5.384  0.3406  0.5485 -0.5570
  474EMI     C5 8992   4.310   3.770   5.416 -0.2947 -0.0762  0.0233
  474EMI     H2 8993   4.460   3.510   5.283 -0.6267 -2.3273  0.0909
  474EMI     H4 8994   4.103   3.706   5.397 -2.2579  0.9485 -0.5324
  474EMI     H5 8995   4.301   3.864   5.476 -1.5335  0.8469  1.9402
  474EMI    C1' 8996   4.162   3.477   5.278 -0.0865 -0.0841  0.5030
  474EMI    H1' 8997   4.082   3.535   5.236  2.2078  0.2819  0.6507
  474EMI    H1' 8998   4.196   3.413   5.189  1.2600  0.4935  0.8394
  474EMI    H1' 8999   4.130   3.404   5.358 -3.1261 -4.2583  0.9576
  474EMI    C1" 9000   4.563   3.766   5.382  0.5461  0.6847 -0.3639
  474EMI    H1" 9001   4.620   3.715   5.461  0.8963 -1.9745 -1.0123
  474EMI    H1" 9002   4.553   3.875   5.415 -0.0554  2.7475 -1.1894
  474EMI    C2" 9003   4.655   3.758   5.258 -0.3578  0.2297 -0.6143
  474EMI    H2" 9004   4.667   3.653   5.233  1.4256 -0.4081 -1.9790
  474EMI    H2" 9005   4.607   3.801   5.172  0.2460 -1.4603  1.0235
  474EMI    H2" 9006   4.757   3.803   5.265 -2.2079 -0.3747 -2.5453
  475EMI     N1 9007   5.037   2.071   2.869  0.8056 -0.3469  0.5647
  475EMI     C2 9008   4.970   1.953   2.858 -0.2140  0.5894 -0.4289
  475EMI     N3 9009   4.916   1.947   2.735 -0.7689 -0.5198  0.2070
  475EMI     C4 9010   4.927   2.070   2.677  0.7733 -0.0620  0.0833
  475EMI     C5 9011   5.006   2.146   2.757 -0.9188  0.0262  0.2652
  475EMI     H2 9012   4.962   1.873   2.931 -0.3821 -0.9057  0.0908
  475EMI     H4 9013   4.896   2.104   2.590 -0.8690  0.6466  3.1327
  475EMI     H5 9014   5.044   2.251   2.732  1.5453  3.0318 -1.3533
  475EMI    C1' 9015   4.832   1.844   2.679 -0.9188  0.0290 -0.5937
  475EMI    H1' 9016   4.838   1.860   2.569 -1.2068 -0.0758  2.4304
  475EMI    H1' 9017   4.869   1.749   2.712  2.2870 -1.2539 -0.7891
  475EMI    H1' 9018   4.724   1.865   2.709  0.4473 -0.4009 -0.4587
  475EMI    C1" 9019   5.115   2.121   2.982  0.0599 -1.3878  0.4027
  475EMI    H1" 9020   5.065   2.085   3.072  2.0442 -0.7025  2.7941
  475EMI    H1" 9021   5.114   2.231   2.995 -0.9136 -0.2586 -0.5702
  475EMI    C2" 9022   5.265   2.085   2.966 -0.0138  0.0122  0.6207
  475EMI    H2" 9023   5.316   2.076   3.067  0.4941 -1.2914  1.1130
  475EMI    H2" 9024   5.286   1.996   2.911  0.3109 -0.4622 -1.9192
  475EMI    H2" 9025   5.315   2.172   2.912  1.2331  0.2398  0.7075
  476EMI     N1 9026   3.200   2.437   4.646  0.0093  0.0857 -0.2828
  476EMI     C2 9027   3.303   2.377   4.716  0.1325 -0.3384  0.6168
  476EMI     N3 9028   3.255   2.274   4.783  0.0109  0.4368 -0.3636
  476EMI     C4 9029   3.126   2.262   4.758  0.5190 -0.2118  1.3647
  476EMI     C5 9030   3.089   2.362   4.667 -0.1240  0.0452  0.2260
  476EMI     H2 9031   3.402   2.405   4.729  0.3804  0.3942 -0.4961
  476EMI     H4 9032   3.059   2.179   4.793 -1.6751 -0.4565  1.4082
  476EMI     H5 9033   2.990   2.378   4.615  0.3098  0.7733 -1.0010
  476EMI    C1' 9034   3.321   2.174   4.878 -0.1937  0.2476  0.4251
  476EMI    H1' 9035   3.425   2.197   4.896  2.6214 -2.7388  2.1216
  476EMI    H1' 9036   3.266   2.184   4.971  0.8540 -1.5500  1.9661
  476EMI    H1' 9037   3.314   2.073   4.833 -2.5407 -0.8947  0.5178
  476EMI    C1" 9038   3.208   2.560   4.567 -0.1177 -0.4046 -0.1853
  476EMI    H1" 9039   3.180   2.643   4.630  1.3480 -0.0309 -0.7123
  476EMI    H1" 9040   3.137   2.559   4.483 -1.4648 -1.1623 -0.8990
  476EMI    C2" 9041   3.354   2.576   4.514 -0.4183 -1.3728  0.2917
  476EMI    H2" 9042   3.349   2.654   4.441  1.5145 -1.2455 -1.4869
  476EMI    H2" 9043   3.425   2.604   4.593 -1.1641 -3.2593  2.5176
  476EMI    H2" 9044   3.386   2.495   4.461 -0.0201 -0.1959 -0.9474
  477EMI     N1 9045   1.882   4.779   3.205  0.0281 -0.5929 -0.4273
  477EMI     C2 9046   1.784   4.861   3.165 -0.5365 -0.2606  0.7206
  477EMI     N3 9047   1.842   4.980   3.130 -0.0608  0.0993  0.7712
  477EMI     C4 9048   1.974   4.966   3.147  0.0975  0.1671 -0.1641
  477EMI     C5 9049   1.997   4.849   3.204 -0.0817  0.1307 -0.6153
  477EMI     H2 9050   1.684   4.833   3.168 -0.4016 -1.5046  0.4121
  477EMI     H4 9051   2.037   5.052   3.137  0.7469 -0.5794 -1.9742
  477EMI     H5 9052   2.090   4.812   3.241  1.3598  1.8047 -0.2744
  477EMI    C1' 9053   1.780   5.114   3.100 -0.0852  0.4878 -0.0952
  477EMI    H1' 9054   1.818   5.190   3.174  0.3166 -0.0305  1.3003
  477EMI    H1' 9055   1.828   5.128   3.007  0.2765  1.5273  0.5345
  477EMI    H1' 9056   1.676   5.106   3.080  1.3526  2.3688  0.3069
  477EMI    C1" 9057   1.869   4.648   3.275 -0.4957  0.8200  0.3665
  477EMI    H1" 9058   1.799   4.658   3.354  0.8923  0.5590  0.4795
  477EMI    H1" 9059   1.963   4.611   3.320  0.3251 -1.2539  0.5733
  477EMI    C2" 9060   1.814   4.528   3.189 -0.8814 -0.1591 -0.7352
  477EMI    H2" 9061   1.808   4.441   3.251 -0.0928  2.8743 -0.1392
  477EMI    H2" 9062   1.712   4.552   3.151  0.1103  1.9918  1.0676
  477EMI    H2" 9063   1.881   4.512   3.106  0.0295  0.0052  1.3596
  478EMI     N1 9064   1.590   0.035   2.886  0.0040  0.6937  0.2158
  478EMI     C2 9065   1.676   0.018   2.784  0.0982  0.3948 -0.1785
  478EMI     N3 9066   1.779  -0.059   2.816  0.0228  0.3580  0.5560
  478EMI     C4 9067   1.751  -0.111   2.937 -0.1100  0.0248 -0.7283
  478EMI     C5 9068   1.635  -0.059   2.981 -0.3224  0.1733 -0.3933
  478EMI     H2 9069   1.659   0.067   2.685 -0.4734  0.0662 -0.4514
  478EMI     H4 9070   1.822  -0.179   2.989 -0.5489 -0.6469  3.8310
  478EMI     H5 9071   1.583  -0.085   3.076  0.0256 -1.3749  1.2252
  478EMI    C1' 9072   1.874  -0.136   2.729 -0.9689  0.0832  0.4146
  478EMI    H1' 9073   1.855  -0.108   2.623  2.2687  0.8027  0.5102
  478EMI    H1' 9074   1.970  -0.111   2.746 -0.6979 -1.2690 -0.7103
  478EMI    H1' 9075   1.862  -0.248   2.739 -2.2732  0.6008  0.9199
  478EMI    C1" 9076   1.471   0.119   2.910 -0.2966 -0.3441 -0.3808
  478EMI    H1" 9077   1.513   0.215   2.947 -1.3933  1.1849 -1.8194
  478EMI    H1" 9078   1.419   0.067   2.993  0.6144  1.8754  0.1020
  478EMI    C2" 9079   1.373   0.138   2.796  0.3395 -0.2381 -0.1661
  478EMI    H2" 9080   1.422   0.196   2.709  1.7016  0.8340 -2.3319
  478EMI    H2" 9081   1.333   0.046   2.750 -1.5617 -0.0741 -1.7439
  478EMI    H2" 9082   1.283   0.196   2.829 -1.8500  0.0411 -2.4783
  479EMI     N1 9083   3.622   5.065   2.708  0.9373  0.1507  0.4057
  479EMI     C2 9084   3.752   5.030   2.699 -0.0643  0.0255 -0.2530
  479EMI     N3 9085   3.771   4.990   2.576  0.3914 -0.2157 -0.6248
  479EMI     C4 9086   3.652   4.994   2.504  0.3301  0.2554  0.7931
  479EMI     C5 9087   3.555   5.033   2.588 -0.1678 -0.9045 -0.7713
  479EMI     H2 9088   3.828   5.028   2.780 -1.2080  0.8492 -1.0882
  479EMI     H4 9089   3.642   4.971   2.401  1.8375  0.7570 -2.4869
  479EMI     H5 9090   3.451   5.058   2.566 -1.6371  0.0920 -0.2749
  479EMI    C1' 9091   3.892   4.940   2.501 -0.2106 -0.2766  0.3533
  479EMI    H1' 9092   3.893   4.962   2.391  0.3515  0.6553  1.4830
  479EMI    H1' 9093   3.985   4.970   2.542 -0.7859 -4.9761  2.8449
  479EMI    H1' 9094   3.888   4.835   2.507  2.3485  1.1000  1.1358
  479EMI    C1" 9095   3.555   5.135   2.819 -0.2502 -0.2945  0.0327
  479EMI    H1" 9096   3.575   5.074   2.912  1.6084  0.6607  1.2891
  479EMI    H1" 9097   3.446   5.156   2.789 -1.5209  3.9670 -0.4354
  479EMI    C2" 9098   3.629   5.274   2.828 -0.1251 -0.7044  0.1362
  479EMI    H2" 9099   3.611   5.323   2.733 -0.0555 -0.9265  0.3339
  479EMI    H2" 9100   3.589   5.331   2.913  1.9090  1.5476  2.1255
  479EMI    H2" 9101   3.737   5.260   2.842 -0.5557 -0.4338 -0.0848
  480EMI     N1 9102   0.188   2.036   0.147  0.1043 -0.1948  0.3056
  480EMI     C2 9103   0.212   2.023   0.017 -0.7233 -0.0151 -0.0132
  480EMI     N3 9104   0.155   2.126  -0.051 -0.0401 -0.4239  0.4030
  480EMI     C4 9105   0.111   2.215   0.043 -0.3590 -1.1921  0.2930
  480EMI     C5 9106   0.129   2.159   0.160 -0.1132 -0.3639  0.6955
  480EMI     H2 9107   0.270   1.939  -0.022  0.5480  0.4340  1.4047
  480EMI     H4 9108   0.072   2.311   0.011  0.7138  1.0778 -1.6887
  480EMI     H5 9109   0.112   2.201   0.260  0.7758 -0.0482  0.5657
  480EMI    C1' 9110   0.133   2.160  -0.199 -0.5014  0.1678 -0.8888
  480EMI    H1' 9111   0.219   2.227  -0.226  1.8486  4.2641  0.2687
  480EMI    H1' 9112   0.135   2.070  -0.256 -0.9560  0.3040 -1.8989
  480EMI    H1' 9113   0.038   2.213  -0.202  0.1035  0.8797 -0.8808
  480EMI    C1" 9114   0.238   1.951   0.251  0.0923  0.0591  0.2698
  480EMI    H1" 9115   0.350   1.952   0.246  2.3109 -0.2777 -0.5852
  480EMI    H1" 9116   0.208   1.852   0.243  0.8519 -2.6917 -1.5476
  480EMI    C2" 9117   0.197   1.988   0.393  0.4683  0.3595 -0.6448
  480EMI    H2" 9118   0.085   1.992   0.397 -0.7368  0.9876 -0.4327
  480EMI    H2" 9119   0.225   1.902   0.453 -2.0879  1.9024  0.9875
  480EMI    H2" 9120   0.250   2.071   0.429 -0.3885 -0.3400 -1.0797
  481EMI     N1 9121   3.260   2.194   3.466 -0.0069 -0.1839 -0.1773
  481EMI     C2 9122   3.346   2.269   3.393 -0.4950  0.1700 -0.1765
  481EMI     N3 9123   3.355   2.387   3.448 -0.4299 -0.2594 -0.1433
  481EMI     C4 9124   3.274   2.386   3.555  0.4982 -0.1076 -0.1780
  481EMI     C5 9125   3.214   2.271   3.568  0.3312 -0.0177 -0.0653
  481EMI     H2 9126   3.399   2.236   3.303 -1.7649 -1.1523  1.4994
  481EMI     H4 9127   3.241   2.467   3.619  0.6863 -1.9178  0.5817
  481EMI     H5 9128   3.132   2.255   3.638 -1.4014  0.3900 -6.1096
  481EMI    C1' 9129   3.441   2.507   3.417  0.0352  0.3824  0.2023
  481EMI    H1' 9130   3.494   2.531   3.510  0.3485 -0.2000 -2.3197
  481EMI    H1' 9131   3.512   2.490   3.340 -0.1097  2.1275 -2.4289
  481EMI    H1' 9132   3.386   2.599   3.389 -1.0467 -3.9653 -4.1473
  481EMI    C1" 9133   3.214   2.056   3.439  0.7290 -0.2673  0.1223
  481EMI    H1" 9134   3.213   2.008   3.535 -1.9405  1.6285 -0.9948
  481EMI    H1" 9135   3.277   1.999   3.374 -1.1348 -1.2626 -0.4227
  481EMI    C2" 9136   3.066   2.062   3.384  0.3465 -0.7827 -0.3632
  481EMI    H2" 9137   2.997   2.111   3.455 -0.3462 -1.8414  0.0782
  481EMI    H2" 9138   3.061   2.114   3.286 -0.5433 -0.6524 -0.7563
  481EMI    H2" 9139   3.026   1.964   3.379 -1.4797 -1.0493 -2.7395
  482EMI     N1 9140   0.727   5.041   5.927  0.6783  0.5257  0.5214
  482EMI     C2 9141   0.619   5.112   5.899  0.1513  0.0156 -0.0740
  482EMI     N3 9142   0.579   5.180   6.006  0.0738 -0.2632 -0.3841
  482EMI     C4 9143   0.675   5.164   6.103  0.2758 -0.1790 -0.3417
  482EMI     C5 9144   0.759   5.068   6.060 -0.2812 -0.8332 -0.5861
  482EMI     H2 9145   0.566   5.118   5.811 -3.8510 -1.3376 -0.3451
  482EMI     H4 9146   0.678   5.210   6.199 -0.1532 -0.2733 -0.0021
  482EMI     H5 9147   0.842   5.029   6.114 -0.9933 -1.2914 -0.1872
  482EMI    C1' 9148   0.469   5.270   6.027 -0.0505  0.1115 -0.9493
  482EMI    H1' 9149   0.471   5.309   6.131  2.6960  2.7938 -0.2802
  482EMI    H1' 9150   0.492   5.350   5.959  1.7661  0.9091  0.9111
  482EMI    H1' 9151   0.381   5.213   5.997  2.3152  0.9920 -0.5477
  482EMI    C1" 9152   0.810   4.955   5.844  0.0389  0.1231 -0.4838
  482EMI    H1" 9153   0.759   4.898   5.762  0.9835 -4.4499  0.1900
  482EMI    H1" 9154   0.879   4.895   5.909  0.4237  0.4081  1.9812
  482EMI    C2" 9155   0.898   5.054   5.773  0.6161 -0.1271  0.2780
  482EMI    H2" 9156   0.955   5.008   5.700  1.1477 -0.6535 -0.6548
  482EMI    H2" 9157   0.834   5.107   5.702  1.3963  0.1428  1.0780
  482EMI    H2" 9158   0.952   5.122   5.841  0.6478  0.2556  2.2082
  483EMI     N1 9159   6.069   1.200   6.057  0.3348 -0.3729 -0.4052
  483EMI     C2 9160   6.102   1.179   6.189  0.3586  0.2363  0.4446
  483EMI     N3 9161   6.126   1.292   6.252  0.5112 -0.4322  0.4645
  483EMI     C4 9162   6.112   1.394   6.157  0.0891  0.8734  0.6393
  483EMI     C5 9163   6.073   1.338   6.037  0.0476 -0.1133  0.0402
  483EMI     H2 9164   6.117   1.083   6.239  1.4814  2.9696  1.9076
  483EMI     H4 9165   6.143   1.492   6.179  1.0444 -1.3893  1.3287
  483EMI     H5 9166   6.065   1.399   5.943 -3.4431  0.8516  0.0349
  483EMI    C1' 9167   6.148   1.318   6.394 -0.1451 -0.2919  0.1312
  483EMI    H1' 9168   6.121   1.417   6.420 -2.1768 -2.0471 -4.7472
  483EMI    H1' 9169   6.095   1.244   6.457 -0.3604 -0.0632  1.0240
  483EMI    H1' 9170   6.252   1.306   6.418 -0.6979 -1.2651  0.5018
  483EMI    C1" 9171   6.029   1.103   5.952 -0.2774 -0.2111 -0.3135
  483EMI    H1" 9172   6.114   1.033   5.941  1.5510  0.0736  0.8693
  483EMI    H1" 9173   6.030   1.153   5.857 -0.8908  0.5469  0.4691
  483EMI    C2" 9174   5.901   1.035   5.985 -0.4091 -0.7859 -0.2318
  483EMI    H2" 9175   5.841   1.103   6.047 -1.1887 -0.4109  0.7631
  483EMI    H2" 9176   5.848   0.997   5.900  1.5620 -1.5751 -0.2146
  483EMI    H2" 9177   5.920   0.948   6.053  1.9411  1.7978  0.1145
  484EMI     N1 9178   2.493   4.246   1.002  0.9332  0.6143  0.3200
  484EMI     C2 9179   2.507   4.234   1.133  0.9058 -0.4482 -0.0120
  484EMI     N3 9180   2.618   4.294   1.173  0.0680 -0.2771  0.2893
  484EMI     C4 9181   2.687   4.325   1.052  0.0589  0.3553 -0.7789
  484EMI     C5 9182   2.610   4.294   0.948 -0.4378 -0.9219  0.0985
  484EMI     H2 9183   2.440   4.186   1.199  0.0092 -0.8505 -2.1585
  484EMI     H4 9184   2.787   4.364   1.044 -0.0292  0.2095  0.8032
  484EMI     H5 9185   2.644   4.302   0.846 -0.5099  1.8978 -1.4495
  484EMI    C1' 9186   2.677   4.315   1.304  0.0137  0.1667  0.0565
  484EMI    H1' 9187   2.736   4.407   1.313 -1.7974  1.3379 -0.1303
  484EMI    H1' 9188   2.607   4.303   1.384  1.3417  1.5280 -0.2756
  484EMI    H1' 9189   2.745   4.232   1.322 -1.6949  1.6758  2.4400
  484EMI    C1" 9190   2.382   4.205   0.912 -0.0547  0.3373 -0.6331
  484EMI    H1" 9191   2.374   4.296   0.857  1.3473 -0.5277 -0.0586
  484EMI    H1" 9192   2.293   4.186   0.972  2.3076  1.6715 -0.0809
  484EMI    C2" 9193   2.430   4.093   0.828 -0.1530  0.0593 -0.2916
  484EMI    H2" 9194   2.527   4.115   0.780  1.0279 -0.9464  2.7898
  484EMI    H2" 9195   2.447   4.002   0.893 -2.8568 -1.7754  0.1493
  484EMI    H2" 9196   2.351   4.071   0.755  1.6837 -0.2612  1.6146
  485EMI     N1 9197   0.265   3.637   1.611 -0.0190  0.7349 -0.4805
  485EMI     C2 9198   0.385   3.618   1.670  0.4711 -0.3244 -0.2779
  485EMI     N3 9199   0.484   3.673   1.593 -0.4069  0.0292 -0.5602
  485EMI     C4 9200   0.420   3.727   1.479 -0.1892 -0.3828  0.4084
  485EMI     C5 9201   0.285   3.705   1.494 -0.3160 -0.5933 -0.0270
  485EMI     H2 9202   0.393   3.564   1.767 -1.4362 -1.6537 -1.0855
  485EMI     H4 9203   0.466   3.773   1.385  1.4254 -0.4075 -0.8051
  485EMI     H5 9204   0.216   3.734   1.422 -0.3531 -1.0176  1.3705
  485EMI    C1' 9205   0.625   3.669   1.617  0.0865 -0.2945 -0.1197
  485EMI    H1' 9206   0.672   3.590   1.569  0.6200  0.6160  0.6783
  485EMI    H1' 9207   0.671   3.766   1.593 -1.2264  2.2590 -2.2965
  485EMI    H1' 9208   0.646   3.647   1.721 -1.3595  0.3162 -0.6760
  485EMI    C1" 9209   0.131   3.620   1.674 -0.0799 -0.1562  0.1781
  485EMI    H1" 9210   0.124   3.520   1.718 -1.1785  0.0683 -1.4917
  485EMI    H1" 9211   0.056   3.635   1.596  0.4631 -0.1653 -1.4795
  485EMI    C2" 9212   0.106   3.727   1.778  0.0138  0.4442  0.3606
  485EMI    H2" 9213   0.183   3.719   1.854  1.2955 -1.5956  2.2186
  485EMI    H2" 9214   0.120   3.821   1.731 -1.2363  0.4588  3.2644
  485EMI    H2" 9215   0.013   3.715   1.832  1.6108  0.6975 -0.0681
  486EMI     N1 9216   3.755   5.019   4.610  0.2184  0.4274  0.0199
  486EMI     C2 9217   3.804   5.059   4.731 -0.1012  0.5151 -0.1212
  486EMI     N3 9218   3.925   5.115   4.726  0.1193 -0.0699  0.7198
  486EMI     C4 9219   3.966   5.092   4.597 -0.5288  0.3318  0.2989
  486EMI     C5 9220   3.865   5.035   4.524 -0.6143 -0.2195 -0.5314
  486EMI     H2 9221   3.752   5.053   4.825  1.3630 -1.6314 -1.8720
  486EMI     H4 9222   4.058   5.106   4.551  0.1036 -0.4822 -0.9514
  486EMI     H5 9223   3.866   5.012   4.416  0.4075 -2.1539 -0.8500
  486EMI    C1' 9224   4.010   5.184   4.825  0.2174  0.1787  0.0503
  486EMI    H1' 9225   3.959   5.279   4.860 -4.1178  0.8484 -1.8416
  486EMI    H1' 9226   4.034   5.124   4.904 -3.1489 -0.1248 -1.1208
  486EMI    H1' 9227   4.098   5.213   4.777 -0.4868  1.0324 -0.8445
  486EMI    C1" 9228   3.625   4.968   4.566 -0.2730 -0.3707  0.0595
  486EMI    H1" 9229   3.632   4.951   4.462  1.6286 -1.2817  0.6256
  486EMI    H1" 9230   3.555   5.048   4.582 -0.2819 -0.7120 -1.0679
  486EMI    C2" 9231   3.584   4.838   4.637  0.2346  0.1915  0.0400
  486EMI    H2" 9232   3.544   4.853   4.738 -0.2946  1.5562  1.3848
  486EMI    H2" 9233   3.503   4.779   4.583 -0.4869 -0.0159  4.2741
  486EMI    H2" 9234   3.667   4.770   4.651  0.4670 -0.2351 -2.2170
  487EMI     N1 9235   3.965   5.119   5.346 -0.2347 -0.1239 -0.6025
  487EMI     C2 9236   3.843   5.078   5.307  0.7001  0.7007 -0.4866
  487EMI     N3 9237   3.802   4.983   5.398  0.3050  0.2237  0.3083
  487EMI     C4 9238   3.900   4.965   5.488  0.2989 -0.0942 -0.1906
  487EMI     C5 9239   3.996   5.052   5.460  0.3226 -0.1048  0.9446
  487EMI     H2 9240   3.783   5.111   5.231  1.4157 -2.1964  1.9700
  487EMI     H4 9241   3.900   4.895   5.572 -0.3507  0.3428 -1.4789
  487EMI     H5 9242   4.081   5.059   5.513 -3.2740 -0.4563 -0.8455
  487EMI    C1' 9243   3.680   4.896   5.397 -0.0049 -0.2708 -0.3882
  487EMI    H1' 9244   3.602   4.951   5.448  1.5855 -1.1133  0.6561
  487EMI    H1' 9245   3.659   4.879   5.291 -1.0867 -2.1523  0.3351
  487EMI    H1' 9246   3.711   4.799   5.431  0.5351 -1.2325 -2.6340
  487EMI    C1" 9247   4.049   5.235   5.304  0.6247  1.4087  0.1429
  487EMI    H1" 9248   4.148   5.191   5.292  0.2645  0.6357 -0.9800
  487EMI    H1" 9249   4.042   5.307   5.388  1.9686  1.5169  2.4193
  487EMI    C2" 9250   3.996   5.295   5.169 -0.0268 -0.2095 -1.2592
  487EMI    H2" 9251   3.909   5.353   5.191  1.6101  0.4060 -1.6406
  487EMI    H2" 9252   4.076   5.358   5.127 -0.6574 -1.5151 -2.0877
  487EMI    H2" 9253   3.977   5.211   5.104  1.1212 -1.0824 -2.2429
  488EMI     N1 9254   5.801   4.166   2.078  0.3931 -0.1342 -0.1010
  488EMI     C2 9255   5.754   4.090   2.178  0.6280  0.0448  0.7251
  488EMI     N3 9256   5.850   4.011   2.230 -0.0772 -0.3006  0.5106
  488EMI     C4 9257   5.959   4.024   2.145 -0.0803  0.1603 -0.0236
  488EMI     C5 9258   5.929   4.120   2.059  0.3434 -0.2565 -0.6428
  488EMI     H2 9259   5.660   4.106   2.220  2.9644  1.6966 -3.2783
  488EMI     H4 9260   6.054   3.978   2.141  1.6157  1.1276 -2.9828
  488EMI     H5 9261   5.989   4.164   1.980  0.0878 -0.3453 -1.9647
  488EMI    C1' 9262   5.844   3.907   2.339  0.0374  0.0040  1.0414
  488EMI    H1' 9263   5.924   3.835   2.323  0.1313 -1.1422  0.6761
  488EMI    H1' 9264   5.854   3.946   2.441 -0.2976 -1.3488  2.0113
  488EMI    H1' 9265   5.753   3.845   2.329 -0.1801 -0.8930 -3.0107
  488EMI    C1" 9266   5.739   4.269   1.994  0.0344  0.0643 -0.3140
  488EMI    H1" 9267   5.809   4.319   1.927  1.1882  0.2645 -0.5220
  488EMI    H1" 9268   5.699   4.350   2.055 -1.1392  0.9368  0.4140
  488EMI    C2" 9269   5.635   4.192   1.915  0.5979  0.0889 -0.2209
  488EMI    H2" 9270   5.684   4.108   1.863 -0.8796 -1.1217 -0.3245
  488EMI    H2" 9271   5.560   4.149   1.981 -1.0960  1.1966 -0.8582
  488EMI    H2" 9272   5.579   4.261   1.846 -1.4669  1.2573 -1.9319
  489EMI     N1 9273   2.705   6.296   0.355  0.4807  0.1710 -0.0409
  489EMI     C2 9274   2.780   6.184   0.363 -0.0569 -0.4826  0.4418
  489EMI     N3 9275   2.903   6.217   0.406 -0.3324 -1.0280 -0.5299
  489EMI     C4 9276   2.914   6.355   0.407 -0.2005  0.4776  0.6004
  489EMI     C5 9277   2.788   6.403   0.384  0.5674  0.3700 -0.1977
  489EMI     H2 9278   2.744   6.079   0.357  2.4114 -0.3274 -1.3330
  489EMI     H4 9279   3.003   6.407   0.433  0.0125 -0.8398 -0.6497
  489EMI     H5 9280   2.771   6.510   0.393  1.3824 -0.2963 -0.9745
  489EMI    C1' 9281   3.019   6.134   0.438  0.1214 -0.4475  0.3987
  489EMI    H1' 9282   3.031   6.045   0.375  1.1733 -0.6996 -1.6702
  489EMI    H1' 9283   3.114   6.190   0.432  0.2208  1.4342 -2.3197
  489EMI    H1' 9284   3.011   6.079   0.530 -2.5873 -2.2620  0.3342
  489EMI    C1" 9285   2.571   6.323   0.303  0.6217  0.6648 -0.5145
  489EMI    H1" 9286   2.524   6.242   0.248 -0.9602  1.1637  0.7997
  489EMI    H1" 9287   2.567   6.405   0.238 -0.5791 -1.9100 -1.3033
  489EMI    C2" 9288   2.481   6.349   0.427  0.3520  0.4496 -0.5312
  489EMI    H2" 9289   2.469   6.254   0.485 -1.3854 -1.9121 -1.5422
  489EMI    H2" 9290   2.527   6.415   0.496  0.4440  1.0775  2.1421
  489EMI    H2" 9291   2.388   6.379   0.383 -1.6631  0.0855  0.5006
  490EMI     N1 9292   5.701   1.718   5.397  0.5340 -0.1766  0.3395
  490EMI     C2 9293   5.785   1.638   5.460  0.1217  0.6210  1.6709
  490EMI     N3 9294   5.894   1.611   5.381  0.0144 -0.5066 -0.0412
  490EMI     C4 9295   5.874   1.676   5.262 -0.3466 -0.0152  0.7802
  490EMI     C5 9296   5.756   1.742   5.274 -0.3090  0.6520 -0.3070
  490EMI     H2 9297   5.756   1.584   5.548 -1.6471  1.1072  1.1297
  490EMI     H4 9298   5.936   1.658   5.176 -0.3168 -0.6702 -2.3865
  490EMI     H5 9299   5.714   1.803   5.188  1.1358  0.6355  0.8662
  490EMI    C1' 9300   5.999   1.514   5.405 -0.8823  0.2190  0.4401
  490EMI    H1' 9301   5.988   1.445   5.320  1.3120  1.3901 -2.2705
  490EMI    H1' 9302   6.089   1.566   5.394 -1.2688  1.3813 -1.8853
  490EMI    H1' 9303   5.992   1.459   5.496 -4.9615  1.5994  3.1240
  490EMI    C1" 9304   5.559   1.752   5.420 -0.4575 -0.0297  0.3908
  490EMI    H1" 9305   5.552   1.831   5.497  1.7852 -0.9759  0.3176
  490EMI    H1" 9306   5.513   1.670   5.465  1.1660  0.9806  1.6701
  490EMI    C2" 9307   5.475   1.790   5.299 -0.1913  0.6215 -0.1568
  490EMI    H2" 9308   5.483   1.730   5.205 -0.8371 -0.4034 -2.6221
  490EMI    H2" 9309   5.374   1.796   5.327 -3.2820 -0.4093 -2.7453
  490EMI    H2" 9310   5.499   1.889   5.275 -1.6223  0.3674 -0.3269
  491EMI     N1 9311   1.415   2.536   5.035 -0.4534  0.5457  0.1860
  491EMI     C2 9312   1.547   2.561   5.045  0.9122 -0.0037  0.0447
  491EMI     N3 9313   1.621   2.450   5.080  0.1750 -0.2122  0.2369
  491EMI     C4 9314   1.526   2.345   5.094 -0.8747  0.2414  0.0788
  491EMI     C5 9315   1.406   2.404   5.062 -0.0569 -0.6245  0.4176
  491EMI     H2 9316   1.583   2.657   5.030 -1.7045 -0.5280 -2.6568
  491EMI     H4 9317   1.550   2.243   5.120 -1.4673  0.9890 -0.5753
  491EMI     H5 9318   1.315   2.349   5.058  1.5523  0.8364  0.3921
  491EMI    C1' 9319   1.763   2.433   5.097 -0.4342  0.4829  0.0469
  491EMI    H1' 9320   1.790   2.433   5.199  0.4032 -0.6738  2.2458
  491EMI    H1' 9321   1.795   2.340   5.051 -0.1087  0.8747  0.7973
  491EMI    H1' 9322   1.811   2.516   5.060 -1.4548 -3.0108 -0.4272
  491EMI    C1" 9323   1.301   2.635   5.018 -0.4063  0.3288 -0.2871
  491EMI    H1" 9324   1.322   2.692   4.923  0.0509  0.3310 -2.4536
  491EMI    H1" 9325   1.294   2.695   5.107  0.4709 -0.5382 -0.8356
  491EMI    C2" 9326   1.167   2.560   4.982  0.1290 -0.4044 -0.6285
  491EMI    H2" 9327   1.130   2.509   5.071  1.8976  0.5295 -2.0630
  491EMI    H2" 9328   1.096   2.628   4.947  0.6511 -0.2730  0.3347
  491EMI    H2" 9329   1.183   2.497   4.899  1.8245  1.0658 -1.8883
  492EMI     N1 9330   5.283   5.046   5.826 -0.4527 -0.1057  0.6343
  492EMI     C2 9331   5.273   5.076   5.958 -0.0853  0.2857  0.6633
  492EMI     N3 9332   5.184   5.173   5.975 -0.1936 -0.8359  0.4058
  492EMI     C4 9333   5.120   5.196   5.856  0.1671 -0.2510 -0.4486
  492EMI     C5 9334   5.180   5.119   5.770 -0.0308 -0.0729  1.0397
  492EMI     H2 9335   5.331   5.037   6.036 -2.4310  1.1484  0.1783
  492EMI     H4 9336   5.045   5.265   5.846 -0.2953  2.4347  4.5791
  492EMI     H5 9337   5.156   5.121   5.665 -5.0959 -0.9703  1.1148
  492EMI    C1' 9338   5.154   5.243   6.100  0.6059 -0.1061  0.0502
  492EMI    H1' 9339   5.213   5.346   6.090  0.2127  3.3634  1.5768
  492EMI    H1' 9340   5.051   5.266   6.111 -2.1089 -1.8389 -2.9084
  492EMI    H1' 9341   5.182   5.197   6.191 -0.8972  0.4314  1.6804
  492EMI    C1" 9342   5.381   4.960   5.764 -0.3803  0.1560  0.2259
  492EMI    H1" 9343   5.354   4.937   5.658 -3.2322  0.6033 -0.8442
  492EMI    H1" 9344   5.368   4.863   5.823 -2.0519 -1.3616 -1.6863
  492EMI    C2" 9345   5.519   5.026   5.789 -0.1618 -0.4685  0.4867
  492EMI    H2" 9346   5.528   5.061   5.889  0.4464  2.1123 -1.3299
  492EMI    H2" 9347   5.588   4.950   5.770  1.5632  2.0044 -0.0038
  492EMI    H2" 9348   5.528   5.111   5.724  0.7796  0.2290  2.4082
  493EMI     N1 9349   3.413   3.307   4.659 -0.1275  0.5306  0.3273
  493EMI     C2 9350   3.484   3.198   4.623 -0.1522  0.5042  0.5583
  493EMI     N3 9351   3.396   3.099   4.592 -0.7374 -0.2473  0.2348
  493EMI     C4 9352   3.267   3.151   4.599 -0.1760 -0.0344 -0.8039
  493EMI     C5 9353   3.281   3.274   4.646  0.2926  0.7813 -0.2498
  493EMI     H2 9354   3.594   3.190   4.613  0.4502 -2.0588  0.1198
  493EMI     H4 9355   3.177   3.109   4.573  0.8613  3.4175  0.1743
  493EMI     H5 9356   3.191   3.335   4.667 -1.9125 -0.9671 -2.2353
  493EMI    C1' 9357   3.425   2.962   4.552 -0.1780  0.0351  0.3678
  493EMI    H1' 9358   3.342   2.903   4.571  1.1691  2.2415 -1.6714
  493EMI    H1' 9359   3.447   2.958   4.452  3.5628 -1.2716  1.2661
  493EMI    H1' 9360   3.513   2.936   4.607  0.1627  0.6135  0.0751
  493EMI    C1" 9361   3.455   3.430   4.723  0.8739 -0.2830 -0.2668
  493EMI    H1" 9362   3.433   3.425   4.824  1.7315  2.6554 -2.3094
  493EMI    H1" 9363   3.393   3.512   4.687  0.8045 -2.1087 -1.9575
  493EMI    C2" 9364   3.607   3.456   4.714  0.1350 -0.3804  0.2279
  493EMI    H2" 9365   3.622   3.501   4.621 -1.4302  5.2257 -0.2707
  493EMI    H2" 9366   3.648   3.525   4.788  2.7233 -0.2775 -0.8979
  493EMI    H2" 9367   3.670   3.363   4.731  0.4292 -0.9692  1.3667
  494EMI     N1 9368   2.916   0.718   1.241  0.2569  0.5820  0.2027
  494EMI     C2 9369   2.902   0.586   1.281  0.0373 -0.9627  0.3608
  494EMI     N3 9370   3.006   0.547   1.349  0.4989 -0.2970  1.0083
  494EMI     C4 9371   3.089   0.657   1.361 -0.3999 -0.9732 -0.6057
  494EMI     C5 9372   3.034   0.763   1.297  0.6562  0.4728 -0.4191
  494EMI     H2 9373   2.815   0.526   1.252 -1.4647 -0.3161 -3.3323
  494EMI     H4 9374   3.189   0.656   1.414  0.6216 -1.7096 -0.8186
  494EMI     H5 9375   3.076   0.861   1.288 -0.4356 -0.7683  0.0669
  494EMI    C1' 9376   3.040   0.415   1.410 -0.6101 -0.3669  0.0015
  494EMI    H1' 9377   2.996   0.422   1.513  0.2537 -1.3817  2.3804
  494EMI    H1' 9378   2.995   0.339   1.350  1.5835  0.7896 -1.2792
  494EMI    H1' 9379   3.146   0.408   1.418  1.1737 -0.4798  1.6631
  494EMI    C1" 9380   2.830   0.812   1.160  1.2443 -0.3421 -0.6338
  494EMI    H1" 9381   2.789   0.751   1.083  0.8230  0.9675 -2.5654
  494EMI    H1" 9382   2.887   0.888   1.109 -0.0520  0.3242  0.4420
  494EMI    C2" 9383   2.718   0.877   1.236  0.3877  0.1839 -0.5413
  494EMI    H2" 9384   2.663   0.804   1.293  1.0444 -1.9822 -2.2337
  494EMI    H2" 9385   2.762   0.947   1.311  2.8976  2.4820 -1.4754
  494EMI    H2" 9386   2.663   0.929   1.164 -0.5146 -2.2992 -0.1604
  495EMI     N1 9387   4.933   2.937   5.919 -0.1498  0.7211  0.0495
  495EMI     C2 9388   4.935   2.831   5.838  1.0406  0.2900 -0.2080
  495EMI     N3 9389   5.055   2.817   5.780  0.1250  0.7172 -0.0239
  495EMI     C4 9390   5.130   2.927   5.819  0.0270 -0.2493  0.4792
  495EMI     C5 9391   5.058   3.001   5.903  0.5991  0.1136  0.5738
  495EMI     H2 9392   4.853   2.766   5.819 -1.3681 -0.9114  0.1451
  495EMI     H4 9393   5.231   2.954   5.788  3.0510 -0.9868  3.0392
  495EMI     H5 9394   5.094   3.093   5.953  3.1463  2.4179 -0.2889
  495EMI    C1' 9395   5.115   2.712   5.694  0.4017 -0.5585 -0.0795
  495EMI    H1' 9396   5.173   2.763   5.618  2.0547  1.5519 -0.9894
  495EMI    H1' 9397   5.174   2.650   5.763 -0.6441  1.7822  1.1499
  495EMI    H1' 9398   5.025   2.660   5.659 -0.3449  0.2253  1.7504
  495EMI    C1" 9399   4.834   2.988   6.005 -0.3578 -0.4720 -0.4823
  495EMI    H1" 9400   4.748   2.930   5.986 -0.4163  1.7037 -0.7242
  495EMI    H1" 9401   4.833   3.094   5.993 -1.3698 -2.0648  0.7008
  495EMI    C2" 9402   4.872   2.966   6.153  0.4052  0.0729 -0.7444
  495EMI    H2" 9403   4.795   3.011   6.214 -1.7141 -0.8225 -1.7458
  495EMI    H2" 9404   4.898   2.860   6.176  1.5921 -1.8218 -1.5267
  495EMI    H2" 9405   4.964   3.016   6.165 -1.2691  0.3307 -0.9450
  496EMI     N1 9406   1.983   1.464   3.386  0.3568 -0.1935 -0.4442
  496EMI     C2 9407   1.902   1.486   3.491  0.0377  0.5522  0.4864
  496EMI     N3 9408   1.884   1.374   3.561 -0.1808  0.2699 -0.2925
  496EMI     C4 9409   1.962   1.276   3.502 -0.0900  0.7056  0.2310
  496EMI     C5 9410   2.020   1.329   3.393 -1.0593 -0.3706 -0.4839
  496EMI     H2 9411   1.855   1.581   3.505  0.9108  0.7681 -0.4174
  496EMI     H4 9412   1.987   1.171   3.537  0.8556 -0.2193  1.9892
  496EMI     H5 9413   2.084   1.278   3.327  0.2230  0.8600  0.8536
  496EMI    C1' 9414   1.799   1.343   3.681  0.7457 -0.1866  1.0318
  496EMI    H1' 9415   1.729   1.269   3.646 -0.9658 -0.5136 -1.8306
  496EMI    H1' 9416   1.852   1.310   3.764 -2.1124  3.0077  1.5342
  496EMI    H1' 9417   1.757   1.442   3.701  0.8741  2.7852  2.3785
  496EMI    C1" 9418   2.023   1.548   3.271 -0.7670  0.1961 -0.0762
  496EMI    H1" 9419   1.941   1.579   3.209 -2.6356 -0.3082  0.6839
  496EMI    H1" 9420   2.104   1.498   3.213  0.5535 -1.5237  1.6144
  496EMI    C2" 9421   2.096   1.675   3.326  0.8508  0.6918  0.0030
  496EMI    H2" 9422   2.143   1.732   3.243  0.0072  1.7137 -0.4202
  496EMI    H2" 9423   2.033   1.751   3.366 -0.4110 -0.6613 -3.5900
  496EMI    H2" 9424   2.180   1.642   3.386 -1.0842  1.4214  1.0917
  497EMI     N1 9425   3.480   5.731   3.324 -0.8913 -0.4678  0.5659
  497EMI     C2 9426   3.531   5.835   3.254  0.1148  0.3481  0.1354
  497EMI     N3 9427   3.622   5.903   3.324  0.0856  0.2130 -0.0859
  497EMI     C4 9428   3.637   5.836   3.445  0.0084 -0.1394  0.6778
  497EMI     C5 9429   3.552   5.731   3.444  0.5212 -0.7479  0.6133
  497EMI     H2 9430   3.504   5.863   3.150 -1.3182 -0.8668 -2.0013
  497EMI     H4 9431   3.706   5.869   3.529 -0.2147  3.2043 -0.3823
  497EMI     H5 9432   3.532   5.661   3.518 -3.1681 -0.0428 -0.0401
  497EMI    C1' 9433   3.707   6.018   3.309 -0.4126  0.4251 -0.2847
  497EMI    H1' 9434   3.746   6.056   3.402  0.0008  0.6468  0.0703
  497EMI    H1' 9435   3.784   6.004   3.225  0.7484 -1.3579 -2.3405
  497EMI    H1' 9436   3.645   6.099   3.280 -0.2813  0.7667 -0.5616
  497EMI    C1" 9437   3.379   5.626   3.281  0.5848 -0.2517  0.2085
  497EMI    H1" 9438   3.294   5.681   3.227  0.1509  2.5338  1.9494
  497EMI    H1" 9439   3.336   5.579   3.366 -0.6406  1.6825  1.7715
  497EMI    C2" 9440   3.436   5.515   3.189  0.1192  0.1303  0.7470
  497EMI    H2" 9441   3.478   5.564   3.102  3.4130 -0.2367 -0.8388
  497EMI    H2" 9442   3.506   5.446   3.229  1.5580  1.7361 -1.5044
  497EMI    H2" 9443   3.356   5.456   3.141  0.1988  0.7582 -1.9075
  498EMI     N1 9444   2.005   6.007   2.138 -0.3359  0.0086 -0.7119
  498EMI     C2 9445   1.876   6.025   2.144 -0.3183  0.1123 -0.1943
  498EMI     N3 9446   1.819   5.982   2.033  0.0382 -0.3458  0.0420
  498EMI     C4 9447   1.921   5.929   1.954  0.4354 -0.3953  0.4676
  498EMI     C5 9448   2.037   5.944   2.018  0.7858  0.2112  0.7118
  498EMI     H2 9449   1.825   6.068   2.228  1.3533 -2.1676 -1.1033
  498EMI     H4 9450   1.902   5.891   1.854  0.6277 -0.8368  3.1718
  498EMI     H5 9451   2.139   5.915   1.992  2.2276  0.1803  1.3205
  498EMI    C1' 9452   1.679   5.995   1.986  0.4467 -0.0029 -0.8311
  498EMI    H1' 9453   1.612   5.925   2.030 -1.5997 -1.9397 -1.7350
  498EMI    H1' 9454   1.627   6.088   2.003 -1.3812  1.0593  0.4871
  498EMI    H1' 9455   1.686   5.968   1.877  0.3569  3.0634  0.9642
  498EMI    C1" 9456   2.119   6.045   2.227  0.2146 -0.1379 -0.1007
  498EMI    H1" 9457   2.207   6.042   2.159 -0.3381  0.7186 -0.5071
  498EMI    H1" 9458   2.131   5.974   2.313 -2.2523  1.0466 -0.2309
  498EMI    C2" 9459   2.104   6.179   2.292  0.0280  0.7518  0.5948
  498EMI    H2" 9460   2.187   6.185   2.364  0.2830  0.7124 -1.0656
  498EMI    H2" 9461   2.132   6.260   2.223  2.7392 -0.4874  1.4634
  498EMI    H2" 9462   2.001   6.187   2.328  0.0422  0.6738  2.3823
  499EMI     N1 9463   4.801   4.341   0.072 -0.1277 -0.0120  0.4581
  499EMI     C2 9464   4.886   4.242   0.090 -0.9497 -0.1298  0.4543
  499EMI     N3 9465   4.885   4.207   0.221  0.3212  0.3055  0.0200
  499EMI     C4 9466   4.785   4.276   0.281  0.5023 -0.1759  0.1584
  499EMI     C5 9467   4.736   4.364   0.193  0.5221  0.6803  0.0104
  499EMI     H2 9468   4.956   4.213   0.016 -3.2644  0.1331  0.4596
  499EMI     H4 9469   4.760   4.283   0.389 -2.7090  1.5385  2.3417
  499EMI     H5 9470   4.662   4.446   0.200  1.0491  1.2837  1.1396
  499EMI    C1' 9471   4.961   4.111   0.294  0.0590  1.3605  0.0058
  499EMI    H1' 9472   4.981   4.147   0.393  1.1468  1.1740  0.2320
  499EMI    H1' 9473   4.907   4.018   0.291  0.5966  0.5213  0.3762
  499EMI    H1' 9474   5.056   4.110   0.244 -1.8051 -0.1496 -0.9442
  499EMI    C1" 9475   4.789   4.430  -0.043 -0.6939 -0.2875 -0.6158
  499EMI    H1" 9476   4.684   4.445  -0.065 -0.2521 -1.5769 -2.5136
  499EMI    H1" 9477   4.838   4.372  -0.128 -1.1273  0.8108  1.3794
  499EMI    C2" 9478   4.850   4.570  -0.022 -0.7142 -0.2526 -0.0009
  499EMI    H2" 9479   4.825   4.615   0.071  3.6574  2.6520  3.9208
  499EMI    H2" 9480   4.956   4.565  -0.028  1.5162  0.0523 -0.1744
  499EMI    H2" 9481   4.817   4.639  -0.104 -3.8643 -1.5328  1.8462
  500EMI     N1 9482   0.671   4.607   2.149  0.3101 -0.0145 -0.0750
  500EMI     C2 9483   0.639   4.693   2.250 -0.2540  0.2743  0.4250
  500EMI     N3 9484   0.646   4.625   2.367  0.7728 -0.2262 -0.8170
  500EMI     C4 9485   0.681   4.501   2.341  0.8307 -0.5519  0.0237
  500EMI     C5 9486   0.691   4.482   2.207  0.5798  0.5068  0.0058
  500EMI     H2 9487   0.617   4.802   2.242  1.8334  1.4911 -0.3896
  500EMI     H4 9488   0.700   4.429   2.420 -3.6714 -2.4756  1.1907
  500EMI     H5 9489   0.718   4.389   2.159 -1.0001  0.4739  2.4799
  500EMI    C1' 9490   0.616   4.681   2.502 -0.7267  0.3775  0.9108
  500EMI    H1' 9491   0.516   4.717   2.503 -1.4227 -1.9076  0.2413
  500EMI    H1' 9492   0.615   4.594   2.566 -0.3594  0.9746 -0.8125
  500EMI    H1' 9493   0.698   4.749   2.529  0.6275  0.5885  1.4266
  500EMI    C1" 9494   0.675   4.618   1.999  0.2547  0.1627 -0.2371
  500EMI    H1" 9495   0.581   4.666   1.971 -2.5162 -1.2126 -0.8064
  500EMI    H1" 9496   0.679   4.517   1.960 -0.9290  1.6744 -1.4240
  500EMI    C2" 9497   0.803   4.687   1.952 -0.0143 -0.1700 -0.5556
  500EMI    H2" 9498   0.886   4.626   1.982  1.8959  0.9851 -1.7950
  500EMI    H2" 9499   0.809   4.693   1.844 -0.0769  0.6943 -0.2005
  500EMI    H2" 9500   0.816   4.788   2.001 -1.6240  1.4971  1.8275
  501EMI     N1 9501   5.361   5.457   0.951 -0.2737 -0.7051 -0.1417
  501EMI     C2 9502   5.356   5.572   0.875 -0.2331  0.5188 -0.2442
  501EMI     N3 9503   5.461   5.649   0.903  0.0945 -0.1649  0.5074
  501EMI     C4 9504   5.526   5.593   1.009  0.5575  0.0921 -0.7233
  501EMI     C5 9505   5.459   5.479   1.043  0.0649  0.2066 -0.1216
  501EMI     H2 9506   5.294   5.589   0.790  0.2704 -1.6115  0.7190
  501EMI     H4 9507   5.603   5.642   1.071 -1.8660  1.5255  1.8701
  501EMI     H5 9508   5.486   5.420   1.131  0.0796 -1.1250 -2.2628
  501EMI    C1' 9509   5.503   5.773   0.844 -0.5261 -0.0807 -0.4458
  501EMI    H1' 9510   5.445   5.856   0.874  1.3297  1.5154 -1.4429
  501EMI    H1' 9511   5.606   5.804   0.876  1.6089  2.0728  0.7075
  501EMI    H1' 9512   5.502   5.750   0.739  0.6844 -0.8692 -0.7553
  501EMI    C1" 9513   5.263   5.349   0.957  0.7454  0.4872  0.1569
  501EMI    H1" 9514   5.161   5.385   0.987 -1.0469  0.2892 -1.5364
  501EMI    H1" 9515   5.300   5.289   1.045  1.0726 -0.7889 -1.8326
  501EMI    C2" 9516   5.273   5.256   0.831 -0.7335  0.1137  0.1955
  501EMI    H2" 9517   5.262   5.326   0.743 -1.6440  0.0471 -0.1960
  501EMI    H2" 9518   5.363   5.207   0.831 -1.9448  1.3571 -0.1817
  501EMI    H2" 9519   5.180   5.196   0.832  0.1100  2.2744  0.1232
  502EMI     N1 9520   0.590   3.206   5.901  0.0861 -0.4260 -0.6630
  502EMI     C2 9521   0.676   3.151   5.992 -0.5880  0.0541 -0.3565
  502EMI     N3 9522   0.635   3.033   6.029 -0.2316 -0.5581 -0.1420
  502EMI     C4 9523   0.513   3.013   5.974  0.8296 -0.2047 -0.3732
  502EMI     C5 9524   0.491   3.111   5.891  0.0691 -0.1821  0.5294
  502EMI     H2 9525   0.768   3.194   6.018 -1.9386  0.4040  1.4676
  502EMI     H4 9526   0.455   2.926   5.997  1.9292 -2.4001 -3.3552
  502EMI     H5 9527   0.403   3.122   5.829 -1.4778  0.7043 -1.1405
  502EMI    C1' 9528   0.690   2.960   6.133 -0.3149  0.5870  0.3955
  502EMI    H1' 9529   0.768   2.899   6.089  2.1877  1.4966 -0.0525
  502EMI    H1' 9530   0.754   3.034   6.190 -1.0360  1.6258  1.6199
  502EMI    H1' 9531   0.612   2.909   6.188  2.6892  2.8896 -0.5122
  502EMI    C1" 9532   0.605   3.329   5.822  1.1493  0.1842 -0.2002
  502EMI    H1" 9533   0.546   3.407   5.866  1.2833 -0.5825  1.8051
  502EMI    H1" 9534   0.572   3.312   5.723 -0.7772 -1.5153  3.2081
  502EMI    C2" 9535   0.750   3.380   5.810  0.6393 -0.3991 -0.5631
  502EMI    H2" 9536   0.782   3.413   5.916  1.1398 -1.0679  2.1969
  502EMI    H2" 9537   0.818   3.300   5.776 -0.3597 -2.4413  2.1902
  502EMI    H2" 9538   0.753   3.462   5.738  1.7713 -0.0442 -1.0059
  503EMI     N1 9539   2.905   5.159   3.963  0.3769  0.5303 -0.3688
  503EMI     C2 9540   2.943   5.264   3.892  0.6137 -0.4734  0.1773
  503EMI     N3 9541   3.067   5.304   3.936  0.7181 -1.0576 -0.0325
  503EMI     C4 9542   3.097   5.222   4.047 -0.1424  0.1744  0.1078
  503EMI     C5 9543   2.996   5.132   4.062 -0.5267  0.7395  0.5083
  503EMI     H2 9544   2.885   5.309   3.807 -1.1453  3.0956  0.5103
  503EMI     H4 9545   3.185   5.233   4.111  1.1360 -2.4441  1.7266
  503EMI     H5 9546   2.984   5.040   4.125 -1.8417  0.7814  1.4062
  503EMI    C1' 9547   3.142   5.424   3.891  0.4567  0.7392 -0.0828
  503EMI    H1' 9548   3.240   5.398   3.858 -4.4476  0.5201  1.0481
  503EMI    H1' 9549   3.095   5.472   3.805  2.6263 -1.6396  0.3380
  503EMI    H1' 9550   3.156   5.495   3.976  0.5063 -1.1723  1.1672
  503EMI    C1" 9551   2.771   5.083   3.951 -0.6715 -0.2850 -0.5766
  503EMI    H1" 9552   2.777   5.007   4.025  0.6170  1.5966  0.0692
  503EMI    H1" 9553   2.764   5.042   3.853  0.9106  1.2994  2.7082
  503EMI    C2" 9554   2.651   5.173   3.992  0.2049  0.6244  0.9665
  503EMI    H2" 9555   2.560   5.144   3.940 -0.8054  0.9757  0.3901
  503EMI    H2" 9556   2.627   5.155   4.097 -1.3531 -1.3929 -0.4661
  503EMI    H2" 9557   2.674   5.282   3.980  1.5829 -2.2370 -1.7521
  504EMI     N1 9558   3.039   3.087   5.779  0.3519 -0.4218 -0.0217
  504EMI     C2 9559   3.023   2.964   5.720 -0.0137 -0.6776 -1.1422
  504EMI     N3 9560   3.137   2.928   5.661  0.0863  0.3597  0.1858
  504EMI     C4 9561   3.221   3.035   5.673 -0.1443  0.6949 -0.2286
  504EMI     C5 9562   3.164   3.132   5.738  0.0763  0.3096 -0.0692
  504EMI     H2 9563   2.931   2.908   5.716  3.1711 -1.6811 -1.1099
  504EMI     H4 9564   3.312   3.039   5.612 -0.8767  2.6187  0.0309
  504EMI     H5 9565   3.197   3.242   5.749 -1.3520  2.9577  1.5491
  504EMI    C1' 9566   3.171   2.801   5.599 -0.4166 -0.5964  1.5434
  504EMI    H1' 9567   3.117   2.797   5.503 -0.2078 -1.0756 -4.0434
  504EMI    H1' 9568   3.280   2.800   5.569  2.1790  3.3252  3.5838
  504EMI    H1' 9569   3.150   2.710   5.649  2.1892  1.8585 -0.5850
  504EMI    C1" 9570   2.954   3.182   5.859  0.2409 -0.3515 -0.0187
  504EMI    H1" 9571   2.848   3.187   5.828 -0.9219  0.8085 -0.5114
  504EMI    H1" 9572   2.998   3.277   5.852  2.3247 -2.4307  0.1614
  504EMI    C2" 9573   2.961   3.140   6.000  0.4269 -0.1196  0.0145
  504EMI    H2" 9574   2.940   3.233   6.057  2.6291 -1.0347 -0.1068
  504EMI    H2" 9575   2.891   3.058   6.023 -0.5087  1.9359  1.5320
  504EMI    H2" 9576   3.059   3.092   6.010 -0.4209 -0.7618  2.0887
  505EMI     N1 9577   0.707   2.434   1.973 -0.7773  0.2693 -0.0561
  505EMI     C2 9578   0.708   2.305   2.017 -0.0577 -0.4028 -0.2293
  505EMI     N3 9579   0.587   2.254   1.998 -0.1326  0.0440  0.1414
  505EMI     C4 9580   0.516   2.349   1.931  0.6545  0.3711  0.2384
  505EMI     C5 9581   0.583   2.463   1.928  0.0439  0.0165 -0.5542
  505EMI     H2 9582   0.791   2.246   2.055 -0.2593  2.0367 -2.3019
  505EMI     H4 9583   0.418   2.324   1.893  0.5135  1.7424  2.3947
  505EMI     H5 9584   0.551   2.559   1.893 -1.1641 -1.7609  1.4147
  505EMI    C1' 9585   0.537   2.117   2.014 -0.0711  0.1893  0.6952
  505EMI    H1' 9586   0.532   2.076   1.912 -1.8281  1.9892 -3.3942
  505EMI    H1' 9587   0.615   2.065   2.072  0.8409  1.7262  0.2927
  505EMI    H1' 9588   0.443   2.110   2.068 -1.7160 -2.7974  0.4145
  505EMI    C1" 9589   0.818   2.531   1.969 -0.4274 -1.0468  0.1822
  505EMI    H1" 9590   0.881   2.505   2.049  1.6757  0.5107  0.6311
  505EMI    H1" 9591   0.787   2.642   1.982 -0.2696  1.1488 -0.0304
  505EMI    C2" 9592   0.906   2.514   1.837 -0.1790  0.0579  0.0091
  505EMI    H2" 9593   0.853   2.563   1.758  1.8495  1.5581 -1.7700
  505EMI    H2" 9594   0.992   2.574   1.846 -0.3725 -1.9570 -1.7928
  505EMI    H2" 9595   0.945   2.412   1.827  2.5223 -0.2947 -1.4306
  506EMI     N1 9596   4.660   2.566   2.010 -0.0367 -0.3585  0.8294
  506EMI     C2 9597   4.667   2.674   1.924 -0.7393 -0.3932 -0.7268
  506EMI     N3 9598   4.776   2.747   1.965  0.4474 -0.1960 -0.4885
  506EMI     C4 9599   4.832   2.687   2.080 -0.6019 -0.2642 -0.4486
  506EMI     C5 9600   4.752   2.579   2.112  0.1732  0.3588  0.5200
  506EMI     H2 9601   4.611   2.693   1.834 -1.8584  2.9327 -1.9647
  506EMI     H4 9602   4.927   2.722   2.130  2.8561  3.5492 -1.2947
  506EMI     H5 9603   4.771   2.507   2.193 -0.0035  0.6077 -0.2279
  506EMI    C1' 9604   4.850   2.860   1.896  0.0274  0.4875  0.5578
  506EMI    H1' 9605   4.956   2.842   1.907 -0.0387 -1.5452  1.4490
  506EMI    H1' 9606   4.808   2.868   1.797 -0.9428 -1.0350  0.9917
  506EMI    H1' 9607   4.828   2.946   1.954  1.4769 -0.7461 -0.5670
  506EMI    C1" 9608   4.574   2.451   2.007 -0.5963  0.3778 -0.4254
  506EMI    H1" 9609   4.479   2.486   1.973 -0.5489  0.3689  2.2295
  506EMI    H1" 9610   4.561   2.418   2.112  1.1119 -1.7805  1.2913
  506EMI    C2" 9611   4.629   2.346   1.897  0.7520 -0.4506  0.0464
  506EMI    H2" 9612   4.642   2.395   1.806 -3.6425  0.6357 -0.1107
  506EMI    H2" 9613   4.725   2.305   1.939 -0.0251  0.1337  2.5342
  506EMI    H2" 9614   4.558   2.268   1.889  0.5808  2.9432  1.2770
  507EMI     N1 9615   0.037   3.345   1.998  0.1238  0.9578  0.6134
  507EMI     C2 9616   0.150   3.309   2.067 -0.1378  0.3115  0.5759
  507EMI     N3 9617   0.193   3.185   2.032 -0.1104 -0.2140 -0.0250
  507EMI     C4 9618   0.090   3.129   1.957 -0.1457 -0.3459 -0.2184
  507EMI     C5 9619   0.001   3.228   1.929  0.2764  0.5221  0.1974
  507EMI     H2 9620   0.206   3.365   2.138  0.3513 -0.1206  1.7042
  507EMI     H4 9621   0.086   3.027   1.920 -4.1147 -0.1746  1.4087
  507EMI     H5 9622  -0.092   3.211   1.871 -0.4131  0.1672  0.7489
  507EMI    C1' 9623   0.312   3.112   2.065 -0.4674  0.0113  0.1084
  507EMI    H1' 9624   0.275   3.060   2.145  0.5562 -1.8240 -3.0137
  507EMI    H1' 9625   0.347   3.051   1.977  3.3670 -1.0919 -1.5662
  507EMI    H1' 9626   0.389   3.180   2.092  0.1707 -0.8733 -0.3609
  507EMI    C1" 9627  -0.032   3.467   1.979  0.1432 -0.6762  0.6903
  507EMI    H1" 9628   0.009   3.519   1.891  2.2213 -1.0493  2.8343
  507EMI    H1" 9629  -0.016   3.533   2.071 -1.5279  1.6131  1.4448
  507EMI    C2" 9630  -0.187   3.452   1.967 -0.4928  0.0009 -0.2978
  507EMI    H2" 9631  -0.228   3.552   1.951  2.2607 -0.2289  1.9051
  507EMI    H2" 9632  -0.213   3.381   1.893  2.6403 -2.1546 -1.8590
  507EMI    H2" 9633  -0.227   3.426   2.064 -1.2077 -0.0593  0.7911
  508EMI     N1 9634   3.037   4.551   5.808 -0.1297 -0.0021 -0.0023
  508EMI     C2 9635   3.138   4.620   5.746 -0.3310  0.1347  0.9540
  508EMI     N3 9636   3.197   4.532   5.662  0.1004 -1.2540  0.2275
  508EMI     C4 9637   3.133   4.414   5.665 -0.2131 -0.0992  0.0181
  508EMI     C5 9638   3.041   4.420   5.757 -0.1560 -0.4573 -0.3148
  508EMI     H2 9639   3.169   4.723   5.763 -0.6633  1.2519 -0.6331
  508EMI     H4 9640   3.167   4.331   5.599  1.2971  1.1438 -2.3619
  508EMI     H5 9641   2.973   4.342   5.777  0.0040  1.0129 -0.2202
  508EMI    C1' 9642   3.307   4.543   5.562 -0.0694 -0.3498  0.3969
  508EMI    H1' 9643   3.378   4.638   5.568  1.8753  1.1775 -1.1591
  508EMI    H1' 9644   3.376   4.456   5.562  0.0222  2.2090 -0.4173
  508EMI    H1' 9645   3.274   4.540   5.454 -1.4267  0.0219  2.4669
  508EMI    C1" 9646   2.941   4.598   5.911  0.0798  0.6965  0.2568
  508EMI    H1" 9647   2.992   4.667   5.980  0.8118 -0.5283 -3.5486
  508EMI    H1" 9648   2.919   4.514   5.976  0.2603  0.9148 -1.1483
  508EMI    C2" 9649   2.814   4.650   5.839  0.4538 -0.2590 -0.0974
  508EMI    H2" 9650   2.726   4.641   5.904 -1.7527 -0.3879 -0.5196
  508EMI    H2" 9651   2.834   4.748   5.805 -1.1264  1.1116  0.6667
  508EMI    H2" 9652   2.788   4.595   5.749 -1.2581 -0.7337  0.7732
  509EMI     N1 9653   0.145   4.306   2.256  0.2904 -0.6532  0.4843
  509EMI     C2 9654   0.221   4.397   2.310  0.2103 -0.6866 -0.4959
  509EMI     N3 9655   0.275   4.347   2.424  0.4082  0.2702 -0.6874
  509EMI     C4 9656   0.225   4.223   2.441 -0.2256  0.7503 -0.0761
  509EMI     C5 9657   0.141   4.197   2.336  0.0967 -0.4150  0.6113
  509EMI     H2 9658   0.242   4.496   2.271 -0.4079  1.3795  1.8646
  509EMI     H4 9659   0.250   4.149   2.518  0.0412 -2.0051  1.9261
  509EMI     H5 9660   0.088   4.104   2.326  1.4812 -0.7521 -0.2833
  509EMI    C1' 9661   0.367   4.415   2.527  0.5140  0.2969 -0.4685
  509EMI    H1' 9662   0.454   4.355   2.530  1.4954  2.7718 -1.0211
  509EMI    H1' 9663   0.386   4.517   2.490 -0.2137  0.8503 -1.4789
  509EMI    H1' 9664   0.304   4.421   2.614 -1.0014  0.9637 -2.9710
  509EMI    C1" 9665   0.083   4.295   2.125  0.3564 -0.1059 -0.0734
  509EMI    H1" 9666   0.078   4.190   2.086  1.0189 -1.3567 -1.5077
  509EMI    H1" 9667   0.152   4.350   2.060 -1.2635 -2.7545  2.2877
  509EMI    C2" 9668  -0.056   4.368   2.116 -0.2655 -0.4878 -0.1204
  509EMI    H2" 9669  -0.119   4.324   2.033 -2.0985 -1.7776 -0.0314
  509EMI    H2" 9670  -0.109   4.357   2.210  0.5880  2.0191  1.2434
  509EMI    H2" 9671  -0.036   4.476   2.105  0.4229 -0.7781 -1.1388
  510EMI     N1 9672   4.657   4.140   2.670  0.5575 -0.2326 -0.1852
  510EMI     C2 9673   4.689   4.192   2.786  0.0794 -0.0085 -0.7074
  510EMI     N3 9674   4.715   4.101   2.881 -0.5102 -0.8452 -0.2395
  510EMI     C4 9675   4.707   3.981   2.824  0.0927 -0.0236  0.4648
  510EMI     C5 9676   4.671   4.005   2.695 -0.6017 -0.6138 -0.2913
  510EMI     H2 9677   4.696   4.295   2.820 -1.1069 -1.0415 -0.1583
  510EMI     H4 9678   4.728   3.881   2.856  0.5439 -2.3750  0.5097
  510EMI     H5 9679   4.674   3.924   2.624  1.2282 -0.8274  0.3633
  510EMI    C1' 9680   4.760   4.120   3.018 -0.2280 -0.1159 -0.8179
  510EMI    H1' 9681   4.669   4.101   3.079 -1.0464 -0.6331  0.9526
  510EMI    H1' 9682   4.849   4.059   3.040  1.8049  0.7332  1.4647
  510EMI    H1' 9683   4.791   4.221   3.029  1.0200  2.0298  0.3254
  510EMI    C1" 9684   4.624   4.197   2.539 -0.2833  0.6027 -0.1123
  510EMI    H1" 9685   4.596   4.130   2.466 -4.0413  0.0230 -0.1288
  510EMI    H1" 9686   4.713   4.254   2.499  1.3362 -3.0081 -4.2074
  510EMI    C2" 9687   4.516   4.293   2.568 -0.1002 -0.3749 -0.0275
  510EMI    H2" 9688   4.477   4.331   2.476 -0.8893 -2.0989  1.3642
  510EMI    H2" 9689   4.443   4.233   2.617 -0.2460 -1.6803 -2.0838
  510EMI    H2" 9690   4.552   4.374   2.631 -0.0838 -2.6696 -2.6321
  511EMI     N1 9691   1.486   0.435   3.452 -0.7080 -0.6522 -0.4265
  511EMI     C2 9692   1.598   0.491   3.501  0.4479  0.3125 -0.0605
  511EMI     N3 9693   1.579   0.619   3.538  0.0857  0.1662  0.3666
  511EMI     C4 9694   1.451   0.651   3.505  0.1185  0.0888  0.5860
  511EMI     C5 9695   1.393   0.541   3.454 -0.6561  0.0129 -0.1888
  511EMI     H2 9696   1.695   0.436   3.506  2.6157 -1.8859  1.8921
  511EMI     H4 9697   1.398   0.745   3.529  0.8022  0.5387 -0.6558
  511EMI     H5 9698   1.288   0.543   3.416 -0.6913 -1.3712 -2.4836
  511EMI    C1' 9699   1.673   0.713   3.593  0.6590 -0.1988  0.1849
  511EMI    H1' 9700   1.777   0.687   3.561 -2.4532 -0.8976  1.5924
  511EMI    H1' 9701   1.653   0.820   3.579  1.6196 -0.0423  0.7967
  511EMI    H1' 9702   1.680   0.705   3.705  3.4246 -0.3159  1.8545
  511EMI    C1" 9703   1.461   0.303   3.397 -0.7510  0.7233  0.4294
  511EMI    H1" 9704   1.353   0.299   3.394  3.0182  0.4493  2.1274
  511EMI    H1" 9705   1.500   0.237   3.471  0.5497  3.6948 -1.6610
  511EMI    C2" 9706   1.517   0.278   3.253  0.2851 -0.5795  0.3796
  511EMI    H2" 9707   1.624   0.314   3.259 -0.4279  2.5501 -0.8207
  511EMI    H2" 9708   1.520   0.168   3.231  0.6547  0.9321 -1.6695
  511EMI    H2" 9709   1.468   0.338   3.176  1.4387 -0.0055 -0.8940
  512EMI     N1 9710   0.376   2.422   4.133 -0.2635  0.7092 -0.1383
  512EMI     C2 9711   0.418   2.301   4.167 -0.0030  0.0077  0.4237
  512EMI     N3 9712   0.456   2.230   4.062 -0.3152  0.1097 -0.3007
  512EMI     C4 9713   0.415   2.306   3.956  0.5874 -0.0555 -0.4208
  512EMI     C5 9714   0.364   2.423   3.998 -0.3805 -0.1843  0.0281
  512EMI     H2 9715   0.447   2.275   4.263  1.9681 -0.0952 -0.4820
  512EMI     H4 9716   0.437   2.273   3.852  1.4528  1.5700 -1.2520
  512EMI     H5 9717   0.322   2.506   3.940  1.3125  1.1651 -1.3570
  512EMI    C1' 9718   0.548   2.114   4.047  0.2801 -0.4141 -0.4639
  512EMI    H1' 9719   0.629   2.129   4.128 -0.8988 -1.4421  0.8923
  512EMI    H1' 9720   0.491   2.022   4.051  0.3726  0.8741  1.1654
  512EMI    H1' 9721   0.592   2.126   3.950 -3.8042 -0.1172  2.6904
  512EMI    C1" 9722   0.344   2.530   4.218  0.5041 -0.1437 -0.4329
  512EMI    H1" 9723   0.357   2.630   4.170 -0.5134  1.4123 -1.7247
  512EMI    H1" 9724   0.398   2.530   4.312  0.4447 -0.4878  0.0356
  512EMI    C2" 9725   0.189   2.523   4.246  0.3503 -0.5477 -0.1843
  512EMI    H2" 9726   0.169   2.570   4.339 -0.0168  2.1920 -0.2789
  512EMI    H2" 9727   0.138   2.590   4.182 -0.1051  0.6912 -0.3621
  512EMI    H2" 9728   0.153   2.421   4.239  1.6098 -1.7409  2.8804
  513EMI     N1 9729   6.063   2.048   0.814  0.3374  0.3165  0.1489
  513EMI     C2 9730   6.026   1.959   0.909 -0.8848  0.4065  0.2503
  513EMI     N3 9731   6.128   1.868   0.924  0.2501 -0.2435 -0.6833
  513EMI     C4 9732   6.223   1.900   0.837  0.1508  0.3875 -0.2594
  513EMI     C5 9733   6.182   2.001   0.759 -0.1172 -0.0786  0.5644
  513EMI     H2 9734   5.937   1.967   0.974 -1.4147 -1.4647  1.3394
  513EMI     H4 9735   6.319   1.849   0.837 -1.6837 -1.7693  1.3330
  513EMI     H5 9736   6.245   2.056   0.693  0.6082  1.1641  1.1079
  513EMI    C1' 9737   6.137   1.748   1.009 -0.7337 -0.2055 -0.3698
  513EMI    H1' 9738   6.148   1.781   1.111  1.4820  2.6089 -1.9828
  513EMI    H1' 9739   6.040   1.699   1.005  0.9251 -0.6074  1.2550
  513EMI    H1' 9740   6.220   1.695   0.973 -0.8517 -0.2186 -1.3399
  513EMI    C1" 9741   6.007   2.179   0.774  0.0358 -0.3246  0.0373
  513EMI    H1" 9742   6.020   2.196   0.670  3.2115 -1.4228  2.2256
  513EMI    H1" 9743   6.065   2.258   0.831  0.3280  1.0354  2.1101
  513EMI    C2" 9744   5.858   2.201   0.803  0.2323 -0.3020  0.5506
  513EMI    H2" 9745   5.836   2.301   0.792  1.6303 -0.3590  0.5197
  513EMI    H2" 9746   5.795   2.137   0.746  1.3578  1.4565  1.7510
  513EMI    H2" 9747   5.839   2.184   0.915 -1.6226  2.3265  0.7921
  514EMI     N1 9748   2.192   2.342   6.018 -0.8361  0.3230  0.5773
  514EMI     C2 9749   2.272   2.445   6.060 -0.4961 -0.0847  0.3852
  514EMI     N3 9750   2.264   2.550   5.974  0.3713 -0.4470  0.2961
  514EMI     C4 9751   2.176   2.514   5.879 -0.4637  0.0241 -0.4802
  514EMI     C5 9752   2.134   2.390   5.902  0.1248 -0.3314 -0.1873
  514EMI     H2 9753   2.314   2.460   6.161 -0.4936  0.5970  1.1583
  514EMI     H4 9754   2.140   2.566   5.794 -2.0781 -1.2857  2.2921
  514EMI     H5 9755   2.062   2.341   5.841  0.7578 -0.5836 -0.8602
  514EMI    C1' 9756   2.330   2.680   5.969 -0.8442 -0.3697 -0.1119
  514EMI    H1' 9757   2.439   2.673   5.965 -2.4689  1.5142  1.6621
  514EMI    H1' 9758   2.276   2.741   5.884 -1.0578  1.9218  0.0172
  514EMI    H1' 9759   2.296   2.730   6.060  1.4597 -1.8752 -2.3783
  514EMI    C1" 9760   2.138   2.231   6.100  0.0610  0.0889 -0.2667
  514EMI    H1" 9761   2.028   2.251   6.108 -0.4932  3.1232 -1.1159
  514EMI    H1" 9762   2.173   2.242   6.202  1.3476 -1.2985 -0.9926
  514EMI    C2" 9763   2.188   2.098   6.044  0.3815 -0.0138  0.3888
  514EMI    H2" 9764   2.125   2.063   5.964  1.5221 -2.1968  2.0252
  514EMI    H2" 9765   2.296   2.097   6.007 -0.8846 -1.2903 -0.2773
  514EMI    H2" 9766   2.184   2.031   6.128 -0.1783  2.0278  1.7337
  515EMI     N1 9767   5.909   5.990   3.134 -0.1653  0.6893 -0.0456
  515EMI     C2 9768   5.993   5.977   3.234  0.0851 -0.5727  0.9910
  515EMI     N3 9769   5.931   5.967   3.351 -0.0024  0.2020  0.0491
  515EMI     C4 9770   5.795   5.981   3.319  0.0704  0.0509  0.2407
  515EMI     C5 9771   5.779   5.994   3.184 -0.0306  1.0400 -0.8808
  515EMI     H2 9772   6.096   6.001   3.237 -2.7935  2.8282  2.5135
  515EMI     H4 9773   5.706   5.987   3.389 -0.8111 -1.5843  1.6988
  515EMI     H5 9774   5.690   6.012   3.120  0.3962 -2.5140 -0.1838
  515EMI    C1' 9775   5.981   5.951   3.488  0.0046  0.9868 -0.4828
  515EMI    H1' 9776   6.016   5.849   3.494 -2.3227  0.8447 -4.3155
  515EMI    H1' 9777   6.057   6.030   3.505  1.8716 -1.2277 -1.5995
  515EMI    H1' 9778   5.884   5.957   3.548 -0.9436 -2.1354  1.5763
  515EMI    C1" 9779   5.933   5.998   2.991 -0.0830  0.6126 -0.5595
  515EMI    H1" 9780   5.862   5.930   2.941 -0.4001  1.7709  0.6539
  515EMI    H1" 9781   6.037   5.974   2.967 -0.4135 -1.0821  2.6098
  515EMI    C2" 9782   5.912   6.144   2.946 -0.5081  0.1676  0.4748
  515EMI    H2" 9783   6.005   6.199   2.956 -3.0408  1.6813  0.7998
  515EMI    H2" 9784   5.881   6.135   2.842  1.0732  0.7991  3.4152
  515EMI    H2" 9785   5.832   6.187   2.999 -0.7051  1.4384 -0.9943
  516EMI     N1 9786   5.968   2.083   0.145  0.2058 -0.6440  0.2668
  516EMI     C2 9787   6.033   2.012   0.055 -0.0954  0.0553  0.3261
  516EMI     N3 9788   5.960   1.909   0.009  0.4558 -0.2708 -0.4136
  516EMI     C4 9789   5.835   1.917   0.072 -0.3908 -0.6303  0.2306
  516EMI     C5 9790   5.841   2.026   0.153 -0.2866  0.3361 -0.0440
  516EMI     H2 9791   6.136   2.041   0.024 -0.4194  1.7241  1.2303
  516EMI     H4 9792   5.758   1.845   0.051  2.4354 -3.2951 -0.0004
  516EMI     H5 9793   5.761   2.052   0.224 -2.8224 -1.4724  0.9036
  516EMI    C1' 9794   5.996   1.824  -0.098  0.8345 -0.0075  0.1118
  516EMI    H1' 9795   6.015   1.723  -0.058  2.1408  0.0559  0.5207
  516EMI    H1' 9796   5.918   1.808  -0.168  1.4060 -1.3124  0.3865
  516EMI    H1' 9797   6.093   1.863  -0.131  1.9408  2.0716 -2.0722
  516EMI    C1" 9798   5.996   2.209   0.212  0.0766 -0.2769  0.6015
  516EMI    H1" 9799   6.098   2.238   0.193 -0.3783  1.9417  2.1719
  516EMI    H1" 9800   5.993   2.192   0.320  0.8334  1.1919  1.7997
  516EMI    C2" 9801   5.915   2.333   0.175  0.0544 -0.5380 -0.8624
  516EMI    H2" 9802   5.984   2.419   0.192  2.1710  1.3884 -1.3107
  516EMI    H2" 9803   5.894   2.335   0.067  0.2364  1.2143  1.1354
  516EMI    H2" 9804   5.829   2.352   0.231  0.8983  0.5121  2.4204
  517EMI     N1 9805   2.466   4.314   4.492  0.1786  0.6337  0.0730
  517EMI     C2 9806   2.579   4.375   4.524  0.3715 -0.0763 -0.4955
  517EMI     N3 9807   2.647   4.416   4.418  0.0863  1.0677  0.3813
  517EMI     C4 9808   2.570   4.383   4.314  0.1664 -0.6077 -0.3015
  517EMI     C5 9809   2.458   4.321   4.355 -0.6241  0.0416  0.6322
  517EMI     H2 9810   2.606   4.393   4.625 -1.8068 -2.7375 -2.4507
  517EMI     H4 9811   2.604   4.397   4.212 -0.6594 -0.1611 -0.0315
  517EMI     H5 9812   2.380   4.285   4.291  0.6503 -0.6378  1.0841
  517EMI    C1' 9813   2.775   4.474   4.401 -0.0020  0.5375 -0.4658
  517EMI    H1' 9814   2.833   4.418   4.331  1.3857 -1.0766 -0.7459
  517EMI    H1' 9815   2.750   4.573   4.358  0.2695  0.7532  2.5065
  517EMI    H1' 9816   2.822   4.476   4.501  0.1820 -1.1064 -2.1353
  517EMI    C1" 9817   2.372   4.254   4.577 -0.0289 -0.6834 -0.5328
  517EMI    H1" 9818   2.429   4.203   4.658 -0.0717  1.8434  1.7654
  517EMI    H1" 9819   2.310   4.177   4.527  1.7837 -1.0450  0.0425
  517EMI    C2" 9820   2.286   4.358   4.642  0.8619 -0.2254  0.4992
  517EMI    H2" 9821   2.202   4.316   4.690 -0.2001 -1.1357 -0.7885
  517EMI    H2" 9822   2.338   4.405   4.724  0.3048 -0.8818  0.2327
  517EMI    H2" 9823   2.262   4.436   4.576  2.0954  1.5061 -0.7601
  518EMI     N1 9824   1.022   4.110   4.130  0.6141  0.6313  0.0720
  518EMI     C2 9825   1.016   4.164   4.007  0.6456  0.2946 -0.7960
  518EMI     N3 9826   0.896   4.227   3.988 -0.1203  1.1975  0.1907
  518EMI     C4 9827   0.823   4.210   4.099  0.1506 -0.3966 -0.7637
  518EMI     C5 9828   0.899   4.133   4.183 -0.0938 -0.8560  0.4557
  518EMI     H2 9829   1.100   4.172   3.944  3.1996  4.1748  1.4535
  518EMI     H4 9830   0.722   4.237   4.126  0.8789 -0.7093  0.6134
  518EMI     H5 9831   0.864   4.082   4.272 -0.1478 -0.2669  0.4648
  518EMI    C1' 9832   0.834   4.291   3.871 -0.5649 -0.1756  0.1390
  518EMI    H1' 9833   0.861   4.403   3.888  1.9035  2.1376 -1.0940
  518EMI    H1' 9834   0.890   4.257   3.781  2.1072 -1.9802 -0.2685
  518EMI    H1' 9835   0.731   4.285   3.864  1.0191 -4.4236  1.1265
  518EMI    C1" 9836   1.125   4.022   4.187  0.4862 -0.2314 -0.3145
  518EMI    H1" 9837   1.146   3.942   4.112 -1.3033 -0.1486 -0.7797
  518EMI    H1" 9838   1.093   3.982   4.284  0.9636 -0.4488 -0.8113
  518EMI    C2" 9839   1.258   4.092   4.214  0.2543  0.2127 -0.0178
  518EMI    H2" 9840   1.296   4.127   4.118  1.2836  1.7071  0.9020
  518EMI    H2" 9841   1.235   4.173   4.283 -1.4928 -1.8390 -1.7528
  518EMI    H2" 9842   1.329   4.017   4.253  0.7768  0.3456 -0.8335
  519EMI     N1 9843   3.307   6.240   0.219  0.7407 -0.6626  0.1133
  519EMI     C2 9844   3.265   6.346   0.147  0.3948  0.3429  0.2508
  519EMI     N3 9845   3.148   6.313   0.086  0.2217  0.0283  0.2483
  519EMI     C4 9846   3.119   6.187   0.114 -0.7185 -0.0613  0.3269
  519EMI     C5 9847   3.217   6.140   0.195  0.6453  0.3211  0.3106
  519EMI     H2 9848   3.320   6.441   0.144  0.6520  0.2498 -2.7440
  519EMI     H4 9849   3.030   6.130   0.085  3.1356 -3.2054 -1.7532
  519EMI     H5 9850   3.224   6.036   0.233 -3.1780 -1.2841 -0.9977
  519EMI    C1' 9851   3.073   6.393   0.000 -0.0198 -0.2515  0.0965
  519EMI    H1' 9852   3.134   6.455  -0.064  0.2859 -1.6945 -0.2286
  519EMI    H1' 9853   3.011   6.327  -0.060 -1.0166  0.5258  1.3760
  519EMI    H1' 9854   3.007   6.466   0.050 -1.8941  0.6972 -1.1025
  519EMI    C1" 9855   3.416   6.229   0.317  0.1767 -0.3500 -0.0699
  519EMI    H1" 9856   3.377   6.185   0.411 -0.4061  2.1563  1.6569
  519EMI    H1" 9857   3.461   6.329   0.330  0.4748  1.3410 -0.8313
  519EMI    C2" 9858   3.528   6.132   0.262 -0.1943  0.3118 -0.2090
  519EMI    H2" 9859   3.569   6.183   0.177 -1.9279  3.3927 -0.3774
  519EMI    H2" 9860   3.606   6.112   0.341 -0.5649 -1.0388  1.7422
  519EMI    H2" 9861   3.481   6.040   0.236  0.3272  0.6737  1.4099
  520EMI     N1 9862   5.261   2.027   4.802 -0.0372 -0.6011  0.5864
  520EMI     C2 9863   5.312   2.011   4.673  0.1841  0.4699 -0.0445
  520EMI     N3 9864   5.243   2.090   4.588 -0.0494 -0.2299 -0.8358
  520EMI     C4 9865   5.149   2.158   4.663 -0.1997  0.0020  0.0559
  520EMI     C5 9866   5.157   2.120   4.790 -0.1116 -0.5716  0.8835
  520EMI     H2 9867   5.406   1.952   4.637  0.4782  0.2444 -2.7279
  520EMI     H4 9868   5.076   2.232   4.633  0.3135 -0.3576  0.8190
  520EMI     H5 9869   5.103   2.160   4.869 -0.0975  1.4534  0.3124
  520EMI    C1' 9870   5.269   2.115   4.444  0.3351  0.3123 -0.4542
  520EMI    H1' 9871   5.179   2.147   4.397 -1.4229 -1.8136  0.3964
  520EMI    H1' 9872   5.342   2.196   4.424  1.9613  0.7749  1.6508
  520EMI    H1' 9873   5.298   2.016   4.399 -0.8344 -1.3624 -1.6772
  520EMI    C1" 9874   5.294   1.966   4.932  0.3365  0.7797  0.2458
  520EMI    H1" 9875   5.289   2.030   5.018 -0.2638  2.3983  0.3152
  520EMI    H1" 9876   5.390   1.931   4.924  2.3509  0.8868 -0.7086
  520EMI    C2" 9877   5.212   1.834   4.953  0.0026 -0.4444  0.2276
  520EMI    H2" 9878   5.254   1.793   5.042  0.9899 -1.5161 -1.0351
  520EMI    H2" 9879   5.102   1.849   4.964 -0.9686 -0.4926  0.3791
  520EMI    H2" 9880   5.230   1.769   4.872 -1.9287  0.3369 -3.0260
  521EMI     N1 9881   4.716   0.329   3.503 -0.2969 -0.4430 -0.4877
  521EMI     C2 9882   4.714   0.330   3.367 -0.2299 -0.3949 -0.4066
  521EMI     N3 9883   4.815   0.396   3.315 -0.3514  0.2838  0.1587
  521EMI     C4 9884   4.894   0.433   3.422 -0.0675  0.3327  0.1907
  521EMI     C5 9885   4.832   0.394   3.534  0.2127 -0.3043 -0.1385
  521EMI     H2 9886   4.643   0.277   3.307 -3.5428  0.9771  1.1113
  521EMI     H4 9887   4.988   0.493   3.413  1.7276 -0.7340  0.6582
  521EMI     H5 9888   4.847   0.426   3.643 -1.1690  0.4290 -1.5389
  521EMI    C1' 9889   4.843   0.433   3.177 -0.5301  0.1906  0.2042
  521EMI    H1' 9890   4.791   0.368   3.107 -0.9364  1.0650 -0.8453
  521EMI    H1' 9891   4.807   0.527   3.156 -1.8949 -1.3290 -1.5504
  521EMI    H1' 9892   4.948   0.417   3.168 -1.2669 -1.3205  1.1736
  521EMI    C1" 9893   4.615   0.283   3.606 -0.8477  0.0190 -0.5535
  521EMI    H1" 9894   4.664   0.262   3.700 -0.6008  1.1078  0.1390
  521EMI    H1" 9895   4.566   0.194   3.558 -3.1703 -0.7603 -0.7939
  521EMI    C2" 9896   4.497   0.377   3.619  0.5318 -0.3872  0.1597
  521EMI    H2" 9897   4.538   0.467   3.663 -0.4335 -3.7982 -2.8752
  521EMI    H2" 9898   4.458   0.409   3.526 -1.1789  2.9721 -1.6063
  521EMI    H2" 9899   4.418   0.333   3.677 -2.6835 -2.6567  0.6107
  522EMI     N1 9900   1.352   3.745   1.627 -0.0395  0.3881  0.0303
  522EMI     C2 9901   1.267   3.669   1.698 -0.5030 -0.4850  0.4331
  522EMI     N3 9902   1.147   3.677   1.644  0.2759  0.2309 -0.6895
  522EMI     C4 9903   1.162   3.744   1.520  0.2084 -0.2360 -0.3343
  522EMI     C5 9904   1.289   3.786   1.512 -0.0864 -0.6248  0.4523
  522EMI     H2 9905   1.277   3.608   1.785 -1.1206  1.4587  3.9890
  522EMI     H4 9906   1.083   3.745   1.446 -0.8476  2.0814  0.5900
  522EMI     H5 9907   1.332   3.832   1.432  0.8104 -2.0113 -0.3962
  522EMI    C1' 9908   1.019   3.619   1.683  0.0375  0.4727  0.1750
  522EMI    H1' 9909   0.938   3.683   1.647 -3.2848  4.0937  2.4134
  522EMI    H1' 9910   1.009   3.517   1.637 -1.3091 -1.2345  1.5585
  522EMI    H1' 9911   1.015   3.605   1.789  0.1333  0.9953  0.2183
  522EMI    C1" 9912   1.497   3.769   1.638 -0.1999  0.2353  0.2878
  522EMI    H1" 9913   1.535   3.842   1.709  0.5555  0.0589 -2.2209
  522EMI    H1" 9914   1.530   3.805   1.537  0.5358 -1.6481 -0.7193
  522EMI    C2" 9915   1.567   3.637   1.670 -0.3235 -1.0919  0.7603
  522EMI    H2" 9916   1.541   3.547   1.611 -3.7709 -0.0650 -1.9993
  522EMI    H2" 9917   1.672   3.662   1.658  0.3579  1.9491 -1.3509
  522EMI    H2" 9918   1.551   3.622   1.774 -0.7190 -0.8477  0.8412
  523EMI     N1 9919   5.551   4.924   1.860 -0.3887 -0.0037 -0.5634
  523EMI     C2 9920   5.669   4.859   1.849 -0.1559  0.5343 -0.6229
  523EMI     N3 9921   5.766   4.937   1.905  0.2242  0.2948  0.3859
  523EMI     C4 9922   5.707   5.062   1.935  0.4247  0.0789  0.1869
  523EMI     C5 9923   5.574   5.050   1.910 -0.8041  0.0141 -0.2313
  523EMI     H2 9924   5.685   4.756   1.814  2.7353  0.5268  0.8914
  523EMI     H4 9925   5.752   5.151   1.987  0.1909  0.9182  1.8320
  523EMI     H5 9926   5.501   5.134   1.919 -2.5907  0.6991  0.4058
  523EMI    C1' 9927   5.910   4.911   1.919 -0.2078 -0.1883  0.4870
  523EMI    H1' 9928   5.920   4.803   1.939 -0.9655 -2.5070 -1.2205
  523EMI    H1' 9929   5.965   4.940   1.833  0.4536 -1.1775  2.5518
  523EMI    H1' 9930   5.939   4.974   2.008 -2.0250  0.3029  1.6301
  523EMI    C1" 9931   5.423   4.895   1.789 -0.4149  0.1623 -0.1858
  523EMI    H1" 9932   5.436   4.812   1.725  0.0918  2.2084  0.7959
  523EMI    H1" 9933   5.385   4.980   1.741  1.1514  0.1820 -2.4389
  523EMI    C2" 9934   5.316   4.854   1.900  0.2001 -0.8477  0.5673
  523EMI    H2" 9935   5.345   4.748   1.923  2.8532 -5.9092  1.2608
  523EMI    H2" 9936   5.324   4.905   1.997 -0.1201  1.5943 -2.2510
  523EMI    H2" 9937   5.212   4.847   1.872 -0.0970  1.8009  0.1278
  524EMI     N1 9938   5.667   5.020   3.532 -0.0189  0.2959  0.1268
  524EMI     C2 9939   5.632   5.027   3.660  0.2654  0.0933 -0.2628
  524EMI     N3 9940   5.730   4.996   3.742  0.2373  0.1519 -0.0903
  524EMI     C4 9941   5.839   4.968   3.659  0.0676 -0.1304  0.8233
  524EMI     C5 9942   5.799   4.988   3.531  0.4268 -0.0283 -0.0179
  524EMI     H2 9943   5.528   5.052   3.695 -3.6625  2.0266  1.0540
  524EMI     H4 9944   5.935   4.929   3.680  2.2047 -0.3920 -2.6907
  524EMI     H5 9945   5.868   4.980   3.449 -1.9718  0.4923 -0.7211
  524EMI    C1' 9946   5.735   5.002   3.890 -0.3928  0.7017  0.2852
  524EMI    H1' 9947   5.634   5.023   3.926 -0.3505  1.2581 -1.4864
  524EMI    H1' 9948   5.776   4.907   3.925  0.9885  1.2330 -0.0357
  524EMI    H1' 9949   5.808   5.074   3.923 -0.1181 -2.0142  0.1008
  524EMI    C1" 9950   5.587   5.044   3.412 -0.0645  0.3439  0.8957
  524EMI    H1" 9951   5.493   5.079   3.453 -1.5418 -1.0229 -1.5315
  524EMI    H1" 9952   5.564   4.947   3.375  0.5986  0.1433  1.0521
  524EMI    C2" 9953   5.654   5.125   3.297  0.1060 -0.2585 -0.8802
  524EMI    H2" 9954   5.581   5.167   3.225  2.0150 -1.6921  0.4834
  524EMI    H2" 9955   5.701   5.218   3.332 -0.4551  2.3647  0.6012
  524EMI    H2" 9956   5.730   5.067   3.250 -0.9361  1.8798 -0.6783
  525EMI     N1 9957   1.181   3.036   0.112  0.0910 -0.5285 -0.7659
  525EMI     C2 9958   1.214   3.163   0.074  0.2530  0.1015  0.4850
  525EMI     N3 9959   1.156   3.251   0.159 -0.5912 -0.2284 -0.1980
  525EMI     C4 9960   1.095   3.168   0.259 -0.6417  0.2046 -0.0817
  525EMI     C5 9961   1.109   3.039   0.231 -0.6347  0.4197 -0.1172
  525EMI     H2 9962   1.257   3.192  -0.027 -0.9082 -1.5271 -1.8800
  525EMI     H4 9963   1.036   3.208   0.339  0.6231  2.8374  1.3484
  525EMI     H5 9964   1.062   2.951   0.285 -1.3897 -0.2151  0.3646
  525EMI    C1' 9965   1.153   3.400   0.157  0.3076 -0.2802 -0.0543
  525EMI    H1' 9966   1.081   3.451   0.227 -0.7053  2.3837  2.3222
  525EMI    H1' 9967   1.253   3.437   0.181  0.7518  1.5627  0.4870
  525EMI    H1' 9968   1.126   3.430   0.057 -1.8933  0.3362 -2.6924
  525EMI    C1" 9969   1.192   2.913   0.029 -0.3838 -0.7213  0.0499
  525EMI    H1" 9970   1.115   2.842   0.054 -2.3217  3.2896  1.1911
  525EMI    H1" 9971   1.296   2.877   0.040 -3.8255 -0.6390 -0.4985
  525EMI    C2" 9972   1.164   2.947  -0.121 -0.1807 -0.3637 -0.3138
  525EMI    H2" 9973   1.236   3.016  -0.168 -1.3492 -0.6713  1.9078
  525EMI    H2" 9974   1.179   2.854  -0.174  1.3054  0.2577 -2.8034
  525EMI    H2" 9975   1.064   2.980  -0.126  0.3882 -1.5052  1.9744
  526EMI     N1 9976   5.110   4.773   5.103  0.0831 -0.6428 -0.1675
  526EMI     C2 9977   5.124   4.709   4.989 -0.6313  0.3191 -0.3184
  526EMI     N3 9978   5.229   4.763   4.922  0.3605 -0.0605 -0.1131
  526EMI     C4 9979   5.269   4.873   4.994  1.1960 -0.6114 -0.6434
  526EMI     C5 9980   5.197   4.879   5.107  0.3103 -0.0064 -0.9768
  526EMI     H2 9981   5.074   4.619   4.954  0.2793 -0.0055 -0.9865
  526EMI     H4 9982   5.347   4.940   4.976 -0.1843 -0.7966 -0.8905
  526EMI     H5 9983   5.217   4.956   5.182 -2.7998 -2.2437  1.1015
  526EMI    C1' 9984   5.293   4.721   4.800  0.0689 -0.5512 -0.2546
  526EMI    H1' 9985   5.304   4.803   4.724  4.3729 -2.5203  1.0322
  526EMI    H1' 9986   5.391   4.687   4.821 -0.9083 -0.0319 -1.2455
  526EMI    H1' 9987   5.229   4.640   4.759 -0.5280  0.9327  0.2890
  526EMI    C1" 9988   5.006   4.756   5.201  0.2380  0.1392  0.3140
  526EMI    H1" 9989   4.927   4.687   5.169 -0.9807  1.4310 -3.4549
  526EMI    H1" 9990   4.955   4.855   5.218 -2.9885  0.0770 -0.8413
  526EMI    C2" 9991   5.065   4.691   5.329  0.6001 -0.2231 -0.6362
  526EMI    H2" 9992   5.118   4.600   5.290  1.7209  0.8523 -0.4227
  526EMI    H2" 9993   5.144   4.761   5.367  3.0443 -0.1892  0.1277
  526EMI    H2" 9994   4.988   4.672   5.406 -0.7242 -0.5984 -1.2575
  527EMI     N1 9995   2.709   0.059   4.538 -0.1043  0.4199 -0.8922
  527EMI     C2 9996   2.822   0.038   4.462  1.1012 -0.8669  0.0680
  527EMI     N3 9997   2.834  -0.091   4.440  0.4220 -0.2583  0.6360
  527EMI     C4 9998   2.738  -0.159   4.510  0.1116  0.9090  0.9833
  527EMI     C5 9999   2.658  -0.067   4.566  0.7008  0.2113  0.0403
  527EMI     H210000   2.886   0.107   4.413  3.7718 -1.5399 -1.4147
  527EMI     H410001   2.722  -0.267   4.521  1.1283  1.1799  0.4988
  527EMI     H510002   2.563  -0.089   4.614 -1.9377 -0.5270  0.1846
  527EMI    C1'10003   2.917  -0.169   4.343  0.0177 -0.8159 -0.2035
  527EMI    H1'10004   2.986  -0.216   4.408 -1.4346  0.5656  1.7049
  527EMI    H1'10005   2.854  -0.231   4.275  1.7924 -0.4886  0.2355
  527EMI    H1'10006   2.969  -0.094   4.275  2.1100 -0.2648 -1.1098
  527EMI    C1"10007   2.637   0.180   4.556 -0.2652 -1.2614 -0.9549
  527EMI    H1"10008   2.613   0.223   4.460  0.5890 -0.5637 -2.3651
  527EMI    H1"10009   2.688   0.251   4.620 -1.1189 -0.6839  0.9912
  527EMI    C2"10010   2.511   0.154   4.631  0.6383 -0.0650 -0.6184
  527EMI    H2"10011   2.521   0.129   4.736 -0.6761 -1.0019 -0.1268
  527EMI    H2"10012   2.457   0.248   4.644  0.4380  1.8238 -1.1246
  527EMI    H2"10013   2.451   0.078   4.580 -1.0799  2.0623 -1.7750
  528EMI     N110014   6.061   4.860   0.671 -0.8062 -0.6295  0.4367
  528EMI     C210015   5.973   4.864   0.571 -0.0925  0.0388 -0.8475
  528EMI     N310016   5.863   4.920   0.617  0.1586 -0.0472  0.5322
  528EMI     C410017   5.885   4.963   0.745 -0.2653  0.0609 -0.0686
  528EMI     C510018   6.008   4.928   0.780 -0.9100  0.0044 -1.0972
  528EMI     H210019   5.979   4.822   0.477  0.4592 -0.3333 -0.1982
  528EMI     H410020   5.813   5.016   0.805  1.5676  0.3633  0.8823
  528EMI     H510021   6.060   4.944   0.874  1.2861  0.5965 -0.1866
  528EMI    C1'10022   5.730   4.954   0.556 -0.0897  0.0601 -0.1511
  528EMI    H1'10023   5.729   5.043   0.499  1.4416 -0.5651  1.5771
  528EMI    H1'10024   5.683   4.869   0.495  0.2471 -1.1534 -0.4657
  528EMI    H1'10025   5.659   4.983   0.627  0.0055 -2.0357 -1.1353
  528EMI    C1"10026   6.194   4.798   0.667 -0.0342  0.6287  0.1321
  528EMI    H1"10027   6.241   4.836   0.574  0.0569  0.0948  0.4328
  528EMI    H1"10028   6.181   4.691   0.666  1.8603  0.3937 -1.2142
  528EMI    C2"10029   6.288   4.834   0.783  0.5792 -0.4726  0.0387
  528EMI    H2"10030   6.322   4.939   0.778 -2.2078  2.3323 -0.3154
  528EMI    H2"10031   6.222   4.825   0.874 -2.1636 -0.1465 -0.7754
  528EMI    H2"10032   6.373   4.759   0.781  0.8950  0.1314 -0.2577
  529EMI     N110033   4.557   4.541   4.757  0.0567 -0.4135 -0.5390
  529EMI     C210034   4.606   4.487   4.874 -0.8157  0.2986  0.6058
  529EMI     N310035   4.550   4.545   4.980 -0.1648 -0.5161 -0.0158
  529EMI     C410036   4.453   4.627   4.926  0.3660 -0.1864  0.7566
  529EMI     C510037   4.456   4.623   4.791  0.3866 -0.0670 -0.2787
  529EMI     H210038   4.688   4.413   4.879  2.1717  0.1709 -3.0149
  529EMI     H410039   4.388   4.697   4.979  0.5128  1.5056  0.6081
  529EMI     H510040   4.397   4.684   4.723 -0.7548  2.1005 -1.1012
  529EMI    C1'10041   4.560   4.516   5.121  0.1617  0.0532 -0.0131
  529EMI    H1'10042   4.484   4.446   5.161 -1.7147  0.8703  0.3072
  529EMI    H1'10043   4.664   4.490   5.143 -0.2639 -1.1525 -1.3955
  529EMI    H1'10044   4.547   4.604   5.179 -1.2836  2.5741  0.2409
  529EMI    C1"10045   4.602   4.520   4.611  0.1544  0.2207  0.1734
  529EMI    H1"10046   4.693   4.460   4.613 -1.1630  1.6985  0.9878
  529EMI    H1"10047   4.601   4.622   4.570 -1.2591  0.6385 -1.0183
  529EMI    C2"10048   4.505   4.434   4.530  0.0076  0.0943  0.0852
  529EMI    H2"10049   4.564   4.383   4.452  0.0670  0.4337 -0.1651
  529EMI    H2"10050   4.460   4.355   4.599 -0.1568 -3.1923  0.9278
  529EMI    H2"10051   4.429   4.496   4.471  0.4548  0.4098 -0.6229
  530EMI     N110052   2.801   2.126   4.798  0.1312  0.4158 -0.3038
  530EMI     C210053   2.781   1.991   4.801 -0.6210 -0.6996 -0.4044
  530EMI     N310054   2.834   1.943   4.916  0.9122 -0.1432  0.1541
  530EMI     C410055   2.880   2.049   4.989 -0.6074 -0.1474  0.1880
  530EMI     C510056   2.858   2.162   4.921 -0.1625  0.1903 -0.0274
  530EMI     H210057   2.765   1.933   4.708 -0.9056  0.5636  1.1815
  530EMI     H410058   2.925   2.038   5.091 -2.6043  2.8010  0.0429
  530EMI     H510059   2.884   2.262   4.957  0.5508  0.3578 -0.3412
  530EMI    C1'10060   2.864   1.813   4.954  0.2877 -0.2652  0.2210
  530EMI    H1'10061   2.959   1.787   4.907  0.8690 -0.7619  2.0420
  530EMI    H1'10062   2.862   1.797   5.062  0.5256  0.4040 -0.3015
  530EMI    H1'10063   2.787   1.747   4.918 -1.6735 -1.7853 -1.3182
  530EMI    C1"10064   2.787   2.213   4.683  0.0015  0.2057  0.2504
  530EMI    H1"10065   2.717   2.163   4.620  1.3768  0.3958 -0.3082
  530EMI    H1"10066   2.884   2.226   4.638  2.2340  1.1930  1.6190
  530EMI    C2"10067   2.738   2.346   4.723  0.3081  0.0817  0.2620
  530EMI    H2"10068   2.822   2.401   4.779  1.4541  0.9650  2.0383
  530EMI    H2"10069   2.697   2.399   4.639 -0.1918 -0.0404  0.9471
  530EMI    H2"10070   2.650   2.336   4.790 -0.9076 -1.4109  3.1673
  531EMI     N110071   2.593   5.315   5.878  0.0984  0.4073 -0.1833
  531EMI     C210072   2.483   5.240   5.887  0.0371 -0.7473  0.2739
  531EMI     N310073   2.423   5.258   6.009  0.2974 -0.0312  0.9142
  531EMI     C410074   2.505   5.353   6.070  0.4797 -0.6097  0.5176
  531EMI     C510075   2.602   5.391   5.989 -0.8171 -0.2222 -0.1443
  531EMI     H210076   2.428   5.199   5.801  0.5208  0.5603 -0.0938
  531EMI     H410077   2.481   5.384   6.172  1.1532 -0.9798 -1.6392
  531EMI     H510078   2.688   5.462   6.003  1.3817  0.4937  1.1227
  531EMI    C1'10079   2.304   5.197   6.065 -0.9741  0.3342  0.3125
  531EMI    H1'10080   2.319   5.177   6.165  1.6592  0.3881 -3.0515
  531EMI    H1'10081   2.219   5.258   6.059  0.9218  0.6312  0.0427
  531EMI    H1'10082   2.272   5.106   6.008 -0.3890 -1.7730  0.4378
  531EMI    C1"10083   2.674   5.343   5.761 -0.1050 -0.7294  0.1274
  531EMI    H1"10084   2.780   5.336   5.794 -0.8681 -0.4725  0.6491
  531EMI    H1"10085   2.653   5.450   5.741 -0.1659  2.2517 -0.9408
  531EMI    C2"10086   2.644   5.262   5.644  0.3929 -0.0312 -0.2930
  531EMI    H2"10087   2.716   5.284   5.569 -0.8437 -1.0933  1.4014
  531EMI    H2"10088   2.642   5.159   5.672 -0.2016  0.0697 -0.3800
  531EMI    H2"10089   2.544   5.284   5.610  2.4967 -2.4491 -0.7491
  532EMI     N110090   0.920   1.945   3.431 -0.1064 -0.5151  0.9287
  532EMI     C210091   0.927   1.954   3.568 -0.6390 -0.2106  0.3197
  532EMI     N310092   1.021   1.871   3.613  0.2322 -0.0896 -0.3803
  532EMI     C410093   1.073   1.804   3.508 -0.3346  0.1482 -0.1968
  532EMI     C510094   1.003   1.841   3.399  0.0227  0.4100  0.2063
  532EMI     H210095   0.875   2.021   3.634  1.1543  1.3826 -0.7121
  532EMI     H410096   1.147   1.722   3.509 -0.1427  0.4138 -1.2524
  532EMI     H510097   1.026   1.813   3.300 -0.2462  0.6849  0.8152
  532EMI    C1'10098   1.069   1.847   3.745  0.1927 -0.1455 -0.9023
  532EMI    H1'10099   0.995   1.792   3.796  0.3391 -3.4342 -3.8327
  532EMI    H1'10100   1.152   1.779   3.737 -0.0887  0.8653 -0.5609
  532EMI    H1'10101   1.107   1.930   3.797 -0.7174  0.4077 -1.5587
  532EMI    C1"10102   0.836   2.020   3.339  0.2849  0.0421  0.2095
  532EMI    H1"10103   0.829   1.981   3.240 -3.0345  0.8385  2.7212
  532EMI    H1"10104   0.891   2.113   3.328  0.1650 -1.0190 -1.4487
  532EMI    C2"10105   0.703   2.059   3.402 -0.7122  0.1738 -0.5010
  532EMI    H2"10106   0.661   2.130   3.336 -0.1947  0.6157  1.7729
  532EMI    H2"10107   0.635   1.976   3.390 -0.1287 -1.6491 -2.4034
  532EMI    H2"10108   0.699   2.092   3.508  1.2103  0.2248  2.9270
  533EMI     N110109   1.766   6.174   1.137 -0.5150 -0.3120 -0.0324
  533EMI     C210110   1.879   6.118   1.092  0.0110 -0.4232 -0.2470
  533EMI     N310111   1.981   6.180   1.145 -0.7340 -0.5250 -0.1848
  533EMI     C410112   1.928   6.275   1.231 -0.3204 -0.1373 -0.4278
  533EMI     C510113   1.796   6.273   1.220 -0.1844  0.1799  0.3419
  533EMI     H210114   1.880   6.045   1.007  1.4675 -2.9079 -1.8608
  533EMI     H410115   1.984   6.355   1.279  3.6998  1.5144 -1.2634
  533EMI     H510116   1.739   6.347   1.273  0.2747  1.3001 -0.0292
  533EMI    C1'10117   2.122   6.151   1.131  0.0527 -0.4530  0.5208
  533EMI    H1'10118   2.172   6.237   1.084  1.9135  2.8606  3.1257
  533EMI    H1'10119   2.178   6.133   1.221 -3.2079  1.9190 -0.1866
  533EMI    H1'10120   2.139   6.056   1.075 -1.0560  1.0479 -2.2662
  533EMI    C1"10121   1.625   6.146   1.100 -0.0065 -0.5650  0.1712
  533EMI    H1"10122   1.617   6.124   0.992 -0.5743 -0.9780  0.1709
  533EMI    H1"10123   1.560   6.222   1.140  2.4758 -0.7560  2.6773
  533EMI    C2"10124   1.569   6.010   1.167  0.2366 -0.5655 -0.1344
  533EMI    H2"10125   1.564   6.005   1.283  1.1833  0.9035  1.0678
  533EMI    H2"10126   1.477   5.987   1.112 -0.1894 -1.5127 -1.2449
  533EMI    H2"10127   1.655   5.940   1.156  2.9652  2.3853  0.6842
  534EMI     N110128   1.482   2.205   1.666 -0.0618  0.1513 -0.2823
  534EMI     C210129   1.482   2.255   1.539  0.0849 -0.1621 -0.0768
  534EMI     N310130   1.608   2.267   1.489 -0.1803 -0.3860  0.8159
  534EMI     C410131   1.692   2.223   1.588  0.2254  0.5358 -1.2106
  534EMI     C510132   1.617   2.182   1.695  0.2898  0.1087 -1.0709
  534EMI     H210133   1.383   2.289   1.493  0.9735  1.8747 -1.2328
  534EMI     H410134   1.800   2.225   1.586  2.2097  0.2260 -0.0517
  534EMI     H510135   1.656   2.149   1.789  1.2811  0.9933  0.5456
  534EMI    C1'10136   1.659   2.318   1.361  0.0720 -0.1320 -0.2114
  534EMI    H1'10137   1.650   2.427   1.359  0.9816 -0.4330  1.7493
  534EMI    H1'10138   1.756   2.278   1.358 -2.9189  0.0123  0.7434
  534EMI    H1'10139   1.604   2.271   1.288 -1.6708 -1.5137  0.2139
  534EMI    C1"10140   1.372   2.172   1.763 -0.0956  0.2850 -0.3113
  534EMI    H1"10141   1.293   2.245   1.755  0.9949 -3.8675  0.5010
  534EMI    H1"10142   1.425   2.176   1.862  2.2257 -1.8730 -0.2403
  534EMI    C2"10143   1.322   2.027   1.756 -0.6857  0.2872 -0.0672
  534EMI    H2"10144   1.233   2.015   1.695  2.2269 -4.0264 -0.0675
  534EMI    H2"10145   1.405   1.975   1.709  1.4313  0.2251  2.0040
  534EMI    H2"10146   1.314   1.991   1.858  0.9350 -0.2687  0.2642
  535EMI     N110147   0.077   2.076   3.922  0.5426  0.1373 -0.6377
  535EMI     C210148   0.145   1.973   3.864 -0.0558  0.0773 -0.1580
  535EMI     N310149   0.089   1.955   3.741  0.1180  0.8330 -0.3739
  535EMI     C410150  -0.005   2.052   3.721 -0.1494 -0.0284  0.3428
  535EMI     C510151   0.000   2.134   3.827  0.1256  0.6738  0.6211
  535EMI     H210152   0.220   1.921   3.913 -2.0061 -0.2540 -1.1737
  535EMI     H410153  -0.069   2.059   3.637 -0.0551  1.1730  2.9180
  535EMI     H510154  -0.062   2.216   3.859  0.7852 -0.1167  0.2498
  535EMI    C1'10155   0.123   1.858   3.635 -0.8650  0.3877 -0.1489
  535EMI    H1'10156   0.212   1.797   3.656 -0.5402 -1.9382  0.2411
  535EMI    H1'10157   0.039   1.791   3.615 -1.0945  0.8727 -0.2144
  535EMI    H1'10158   0.152   1.916   3.542 -2.8420  1.9540 -3.3276
  535EMI    C1"10159   0.092   2.134   4.056  0.2983  0.7494  0.3517
  535EMI    H1"10160   0.113   2.242   4.044 -0.4338 -1.7241 -1.7028
  535EMI    H1"10161   0.164   2.084   4.114  0.3085  1.4876  3.0604
  535EMI    C2"10162  -0.043   2.128   4.122  0.1352  0.1939  0.3276
  535EMI    H2"10163  -0.114   2.209   4.086  2.4631  1.1735 -0.2545
  535EMI    H2"10164  -0.076   2.027   4.130  0.2894  0.8488  1.1306
  535EMI    H2"10165  -0.026   2.155   4.226  1.9385  2.8624 -0.4328
  536EMI     N110166   3.672   0.982   4.903 -0.5226 -0.1408  0.5297
  536EMI     C210167   3.764   1.080   4.928  0.5168 -0.4115  0.2741
  536EMI     N310168   3.698   1.197   4.944  0.5190 -0.4995 -0.2887
  536EMI     C410169   3.566   1.176   4.934  0.0669 -0.2652  0.5447
  536EMI     C510170   3.548   1.044   4.913  0.2794  0.3482  0.0052
  536EMI     H210171   3.869   1.066   4.934  1.0915 -0.7902 -0.8261
  536EMI     H410172   3.480   1.253   4.942  2.1545 -0.2726  0.9732
  536EMI     H510173   3.457   0.988   4.908 -2.5564  1.5678  0.3652
  536EMI    C1'10174   3.755   1.333   4.953 -0.8053  0.7839  0.7519
  536EMI    H1'10175   3.697   1.410   4.900 -0.8992  0.2148 -2.0524
  536EMI    H1'10176   3.752   1.360   5.055  2.3035  3.5534 -0.0367
  536EMI    H1'10177   3.860   1.331   4.929 -0.9267  2.2262 -2.2895
  536EMI    C1"10178   3.698   0.839   4.881 -0.1799  0.4511 -0.1991
  536EMI    H1"10179   3.749   0.825   4.784 -1.5179  1.5468  0.5596
  536EMI    H1"10180   3.597   0.785   4.884  0.1748 -0.5837 -2.4670
  536EMI    C2"10181   3.787   0.787   4.991 -0.5085 -0.2173 -0.4719
  536EMI    H2"10182   3.889   0.828   4.972 -0.5723  1.1354 -2.7866
  536EMI    H2"10183   3.764   0.820   5.097 -1.1023 -2.1815 -0.2699
  536EMI    H2"10184   3.779   0.677   4.989 -0.6483  2.1225 -4.4522
  537EMI     N110185   1.926   2.591   3.959  0.1325  0.1171 -0.5407
  537EMI     C210186   1.884   2.691   3.884 -0.5709  0.1344 -0.7855
  537EMI     N310187   1.781   2.753   3.940 -0.3316 -0.0679  0.0353
  537EMI     C410188   1.772   2.704   4.068  0.6889 -0.4437  0.5458
  537EMI     C510189   1.857   2.599   4.081  0.5727 -0.6333 -0.1884
  537EMI     H210190   1.925   2.706   3.786 -0.5167  1.0966 -0.7839
  537EMI     H410191   1.700   2.737   4.144 -2.1073 -1.9256 -1.2787
  537EMI     H510192   1.858   2.539   4.167  0.1383  1.1588  0.3161
  537EMI    C1'10193   1.683   2.852   3.884 -0.5830 -0.3532  0.3187
  537EMI    H1'10194   1.592   2.825   3.935 -0.4071 -0.8105 -0.1010
  537EMI    H1'10195   1.724   2.950   3.902  2.2887  0.6527 -0.9290
  537EMI    H1'10196   1.672   2.834   3.775  5.2215  0.7180  0.1910
  537EMI    C1"10197   2.040   2.500   3.936  0.5963 -0.5015 -0.2215
  537EMI    H1"10198   2.068   2.455   4.035 -2.4359 -0.5917  2.0245
  537EMI    H1"10199   2.131   2.563   3.899  2.0928  3.5348  1.1670
  537EMI    C2"10200   2.003   2.384   3.837  0.0628  0.3095  0.0154
  537EMI    H2"10201   2.010   2.420   3.734  0.8313 -2.3216 -1.4820
  537EMI    H2"10202   2.067   2.300   3.844 -2.0057  0.8471 -0.5914
  537EMI    H2"10203   1.900   2.358   3.870 -0.7211 -0.2418 -0.5519
  538EMI     N110204   0.064   3.669   5.168  0.3143  0.3069  0.2010
  538EMI     C210205   0.180   3.645   5.101 -0.3273  0.2322  0.6758
  538EMI     N310206   0.167   3.655   4.968  0.7085  0.5661  0.7448
  538EMI     C410207   0.032   3.676   4.947 -0.1760 -0.0525 -1.0457
  538EMI     C510208  -0.032   3.686   5.064 -0.5503  0.8297  0.0681
  538EMI     H210209   0.281   3.634   5.152 -0.8194 -1.0312 -1.5285
  538EMI     H410210  -0.008   3.694   4.847 -1.1319  0.9630 -0.4090
  538EMI     H510211  -0.138   3.713   5.076 -1.9526 -0.4661  0.9362
  538EMI    C1'10212   0.258   3.621   4.859 -0.0714  0.0090 -0.5853
  538EMI    H1'10213   0.245   3.520   4.816 -1.3660 -0.8238  0.0008
  538EMI    H1'10214   0.243   3.683   4.773 -0.0091  3.0713  1.6857
  538EMI    H1'10215   0.357   3.632   4.903  0.1163  0.7182 -0.1278
  538EMI    C1"10216   0.034   3.675   5.313 -0.1962 -0.0645  0.1028
  538EMI    H1"10217  -0.017   3.586   5.351 -2.8627 -3.1373 -1.6374
  538EMI    H1"10218  -0.049   3.753   5.327 -2.1798  2.4005 -0.5581
  538EMI    C2"10219   0.152   3.720   5.398  1.5950  0.8550  0.2641
  538EMI    H2"10220   0.204   3.788   5.339 -0.8941  2.0592  2.3221
  538EMI    H2"10221   0.123   3.752   5.499  1.2507 -0.0415  1.8129
  538EMI    H2"10222   0.218   3.638   5.411  0.6383 -0.8724 -1.2166
  539EMI     N110223   4.788   3.477   2.252  0.2790 -0.1759 -0.0748
  539EMI     C210224   4.867   3.379   2.284 -0.8483  0.4807 -0.2487
  539EMI     N310225   4.884   3.366   2.417 -0.6617  0.0827  0.4114
  539EMI     C410226   4.808   3.463   2.475  0.1054 -0.0253 -0.2245
  539EMI     C510227   4.753   3.538   2.375  0.1676 -0.5915 -0.0026
  539EMI     H210228   4.925   3.312   2.215  0.2409 -0.4068 -0.4486
  539EMI     H410229   4.787   3.482   2.582  0.0098  0.7935 -0.1646
  539EMI     H510230   4.693   3.624   2.383  1.9192 -0.1331  0.5721
  539EMI    C1'10231   4.981   3.282   2.490 -0.1574 -0.7328 -0.5463
  539EMI    H1'10232   5.077   3.275   2.443  1.3361  2.3066  0.1006
  539EMI    H1'10233   4.997   3.322   2.592 -0.2928 -0.5985  0.3464
  539EMI    H1'10234   4.946   3.179   2.487  0.0492 -0.6453 -0.8811
  539EMI    C1"10235   4.735   3.512   2.121  1.1182  0.2805  0.5185
  539EMI    H1"10236   4.654   3.583   2.136 -0.5151  0.9915 -0.5820
  539EMI    H1"10237   4.685   3.424   2.081 -1.3472 -0.4909  3.0866
  539EMI    C2"10238   4.851   3.557   2.031 -0.3445  0.4918  0.4735
  539EMI    H2"10239   4.931   3.485   2.039  0.2248 -0.8522  1.8086
  539EMI    H2"10240   4.825   3.561   1.929 -0.4764 -0.5497  2.4929
  539EMI    H2"10241   4.883   3.658   2.060 -0.7667  0.7714 -1.1272
  540EMI     N110242   0.725   4.708   3.578 -0.3530 -0.4207 -0.4606
  540EMI     C210243   0.852   4.653   3.586  0.2551  0.1210 -0.6305
  540EMI     N310244   0.934   4.753   3.634  0.0683 -0.0915 -0.3688
  540EMI     C410245   0.858   4.865   3.665 -0.4075 -0.2649  0.1124
  540EMI     C510246   0.731   4.834   3.638  1.0801  0.4115 -0.2018
  540EMI     H210247   0.884   4.558   3.547  0.3484 -3.4004  0.8020
  540EMI     H410248   0.898   4.960   3.703  2.0145  0.4854 -3.3232
  540EMI     H510249   0.643   4.900   3.661 -4.0589  2.4700  0.6896
  540EMI    C1'10250   1.079   4.759   3.636 -0.0427 -0.2925 -0.3590
  540EMI    H1'10251   1.115   4.665   3.679  0.4990 -2.6155 -0.2559
  540EMI    H1'10252   1.103   4.749   3.533  0.6300  2.2802 -0.1244
  540EMI    H1'10253   1.129   4.848   3.683  1.1185  1.4275  2.2085
  540EMI    C1"10254   0.595   4.650   3.531 -0.5347  0.5985  0.4294
  540EMI    H1"10255   0.557   4.718   3.456 -0.0924  1.1830  0.1174
  540EMI    H1"10256   0.526   4.648   3.612  0.7513  1.0666 -0.8767
  540EMI    C2"10257   0.607   4.503   3.464 -0.7461 -0.0141 -0.2926
  540EMI    H2"10258   0.511   4.493   3.421 -1.1192 -1.9284 -0.3237
  540EMI    H2"10259   0.679   4.511   3.384  0.5159 -0.1084 -1.8530
  540EMI    H2"10260   0.628   4.435   3.544  0.2980 -2.9845 -0.8238
  541EMI     N110261   0.448   0.590   5.151  0.0907 -0.1234 -0.8907
  541EMI     C210262   0.374   0.513   5.239  0.3417  0.0758 -0.5922
  541EMI     N310263   0.301   0.420   5.180  0.1874 -0.3542  0.0824
  541EMI     C410264   0.333   0.429   5.047 -0.4472 -0.1595 -1.3164
  541EMI     C510265   0.430   0.525   5.035 -0.3202 -0.1297  0.4755
  541EMI     H210266   0.361   0.535   5.342  1.8982  0.9309 -1.4950
  541EMI     H410267   0.284   0.374   4.963  0.6046 -0.4334 -4.0212
  541EMI     H510268   0.474   0.549   4.941 -0.5511 -1.0250  2.3074
  541EMI    C1'10269   0.200   0.332   5.235  0.1523  0.2458  0.1121
  541EMI    H1'10270   0.098   0.344   5.202  0.6076  1.3102 -2.2599
  541EMI    H1'10271   0.222   0.229   5.201  0.7719 -1.3076 -2.6838
  541EMI    H1'10272   0.197   0.335   5.342  1.0146 -1.6105 -1.3107
  541EMI    C1"10273   0.527   0.719   5.162 -0.5461  0.1961  0.1118
  541EMI    H1"10274   0.549   0.746   5.265  2.8156 -0.2173 -1.8445
  541EMI    H1"10275   0.450   0.789   5.128  1.3518  1.6869  1.9616
  541EMI    C2"10276   0.652   0.747   5.079  0.6469  0.3021 -0.3246
  541EMI    H2"10277   0.728   0.667   5.095  0.7467 -2.1703 -0.0693
  541EMI    H2"10278   0.627   0.745   4.962  0.7835 -0.5995 -0.6470
  541EMI    H2"10279   0.695   0.845   5.101  0.9967 -2.0942  5.7425
  542EMI     N110280   0.444   1.370   3.553  0.5018  0.1858  0.2012
  542EMI     C210281   0.447   1.504   3.564 -0.2234 -0.2171  0.4268
  542EMI     N310282   0.421   1.558   3.441  0.3977 -0.4893  0.4452
  542EMI     C410283   0.421   1.447   3.354  0.5416  0.0420  0.4424
  542EMI     C510284   0.428   1.330   3.425  0.6461  0.1461 -0.0789
  542EMI     H210285   0.473   1.558   3.654  0.2445 -0.2527 -0.1242
  542EMI     H410286   0.422   1.464   3.249 -1.4572  0.3039  1.2866
  542EMI     H510287   0.440   1.226   3.387 -1.1917  0.2695 -0.4071
  542EMI    C1'10288   0.424   1.699   3.390 -0.8435  0.3907 -0.0028
  542EMI    H1'10289   0.446   1.766   3.475 -2.4679 -3.0002  1.1263
  542EMI    H1'10290   0.514   1.703   3.332 -1.1698 -0.5864 -0.1244
  542EMI    H1'10291   0.335   1.723   3.335 -0.6371 -2.8169 -1.8583
  542EMI    C1"10292   0.475   1.274   3.657 -0.0368 -0.0398  0.0607
  542EMI    H1"10293   0.384   1.224   3.685  1.0057  1.3745  2.9084
  542EMI    H1"10294   0.513   1.328   3.745 -1.8323  0.4872  2.2351
  542EMI    C2"10295   0.588   1.174   3.622 -0.0717  0.0680  0.2509
  542EMI    H2"10296   0.582   1.099   3.699 -0.5690 -0.3913  2.5552
  542EMI    H2"10297   0.566   1.121   3.529  0.1850 -2.0690 -0.8491
  542EMI    H2"10298   0.675   1.231   3.623  0.0756 -0.5504 -1.4185
  543EMI     N110299   2.885   5.054   4.435 -0.3059 -0.3005 -0.1671
  543EMI     C210300   2.933   5.165   4.494  0.1990 -0.8458 -0.5006
  543EMI     N310301   2.851   5.268   4.456 -0.0410 -0.4777  0.2627
  543EMI     C410302   2.753   5.218   4.369 -0.5619 -0.4528 -0.5528
  543EMI     C510303   2.781   5.088   4.355 -0.5524  1.0407 -0.2221
  543EMI     H210304   3.020   5.166   4.562  1.9905 -0.0992  1.3583
  543EMI     H410305   2.678   5.268   4.326  2.8259 -0.1826 -0.0049
  543EMI     H510306   2.725   5.017   4.304 -1.6890 -0.8058  1.1650
  543EMI    C1'10307   2.833   5.402   4.511  0.5556 -0.3505 -0.6139
  543EMI    H1'10308   2.840   5.475   4.437  0.9315  1.8720 -1.8358
  543EMI    H1'10309   2.737   5.405   4.566 -0.0050  0.8734 -0.1788
  543EMI    H1'10310   2.913   5.423   4.587  2.1084 -0.5988  0.8366
  543EMI    C1"10311   2.936   4.914   4.442 -0.3168  0.5116 -0.5961
  543EMI    H1"10312   3.028   4.902   4.503  0.6835 -0.2566  1.0106
  543EMI    H1"10313   2.965   4.897   4.339 -2.3493  0.2369  3.0022
  543EMI    C2"10314   2.824   4.815   4.492 -0.0026  0.1265  0.0542
  543EMI    H2"10315   2.799   4.833   4.597 -0.7228  1.1790  0.7416
  543EMI    H2"10316   2.741   4.820   4.423 -1.6647 -2.9045  1.5439
  543EMI    H2"10317   2.863   4.714   4.475  1.0853  0.5694  0.7056
  544EMI     N110318   1.217   3.329   5.035  0.3936 -0.6278  0.2767
  544EMI     C210319   1.272   3.407   5.127 -0.3545  1.0584 -0.2463
  544EMI     N310320   1.238   3.537   5.106 -0.2627 -0.4612  0.0207
  544EMI     C410321   1.154   3.539   4.999  0.2104  0.3882 -0.0788
  544EMI     C510322   1.139   3.414   4.954  0.2282 -0.0020  0.4200
  544EMI     H210323   1.335   3.375   5.206 -0.1897  2.9344  2.0267
  544EMI     H410324   1.108   3.632   4.953  3.2605 -1.4900  0.4435
  544EMI     H510325   1.074   3.384   4.874  0.6456  0.2661  3.1213
  544EMI    C1'10326   1.259   3.657   5.188  0.0831 -0.5136 -0.2295
  544EMI    H1'10327   1.167   3.701   5.222 -2.3196  0.5204  1.4382
  544EMI    H1'10328   1.310   3.632   5.277  0.5624  2.6257 -1.0940
  544EMI    H1'10329   1.324   3.731   5.138  0.3547  1.0445  0.3044
  544EMI    C1"10330   1.218   3.186   5.022  0.5179  0.8968  0.7356
  544EMI    H1"10331   1.221   3.172   4.911 -1.1999 -1.4879 -0.3334
  544EMI    H1"10332   1.123   3.147   5.061 -1.9558 -0.3499 -1.1294
  544EMI    C2"10333   1.342   3.120   5.085  0.1447  0.9223  0.3437
  544EMI    H2"10334   1.336   3.157   5.193 -2.7854  2.1143  0.2750
  544EMI    H2"10335   1.339   3.008   5.082  1.3317  0.9570 -2.8467
  544EMI    H2"10336   1.437   3.152   5.044 -0.6599 -3.7940 -0.5924
  545EMI     N110337   3.019   2.817   0.945  0.4616 -0.3823  0.3217
  545EMI     C210338   3.035   2.850   1.072 -0.8454  0.5973  0.2375
  545EMI     N310339   2.915   2.876   1.123  0.3807 -0.8914 -0.2204
  545EMI     C410340   2.822   2.858   1.028  0.5945 -0.0908 -0.3254
  545EMI     C510341   2.884   2.818   0.916  0.1854  0.1558 -0.6061
  545EMI     H210342   3.122   2.835   1.128 -2.7880  1.3478  0.1211
  545EMI     H410343   2.712   2.868   1.053 -2.6797  1.6676  0.5119
  545EMI     H510344   2.839   2.784   0.819  0.8239  0.8670  0.2166
  545EMI    C1'10345   2.871   2.901   1.264  0.2024  0.3089  0.8457
  545EMI    H1'10346   2.883   3.002   1.275 -1.0207 -3.5455 -1.1712
  545EMI    H1'10347   2.763   2.869   1.272 -0.2237 -0.9285 -1.3915
  545EMI    H1'10348   2.934   2.838   1.331 -0.4840 -1.3052 -0.1829
  545EMI    C1"10349   3.103   2.727   0.861  0.4752 -0.5149 -0.1297
  545EMI    H1"10350   3.195   2.726   0.909  0.5287  1.5240 -0.9386
  545EMI    H1"10351   3.129   2.778   0.767  0.9114  4.3594  2.4546
  545EMI    C2"10352   3.055   2.589   0.837  0.8218 -0.5554 -0.4856
  545EMI    H2"10353   2.976   2.589   0.761 -0.8792 -0.7726 -0.1004
  545EMI    H2"10354   3.139   2.532   0.788 -0.9813 -0.4662 -1.5264
  545EMI    H2"10355   3.023   2.537   0.929 -1.6558 -4.2754  2.3312
  546EMI     N110356   5.443   5.446   2.442  0.1908  0.6425 -0.3489
  546EMI     C210357   5.400   5.481   2.325  1.4063  0.0279  0.2381
  546EMI     N310358   5.316   5.585   2.335  0.1605 -0.0468 -0.2338
  546EMI     C410359   5.298   5.606   2.466 -0.2695  1.0825 -0.7499
  546EMI     C510360   5.379   5.527   2.535  0.6238  0.5254 -0.1579
  546EMI     H210361   5.430   5.438   2.230  1.5825  2.3193  0.4775
  546EMI     H410362   5.226   5.678   2.507  0.3082 -0.4155 -2.4395
  546EMI     H510363   5.387   5.523   2.646  0.9154  0.7844 -1.7431
  546EMI    C1'10364   5.258   5.666   2.227  0.5072  0.3522  0.4828
  546EMI    H1'10365   5.336   5.703   2.159  0.5478 -1.8260 -1.5358
  546EMI    H1'10366   5.183   5.597   2.181  0.0060 -0.7250 -0.8466
  546EMI    H1'10367   5.211   5.756   2.272  1.1837 -0.4123  1.0846
  546EMI    C1"10368   5.549   5.345   2.472 -0.5450 -0.0107  0.0014
  546EMI    H1"10369   5.642   5.389   2.510  1.8933 -1.9631  1.6101
  546EMI    H1"10370   5.576   5.288   2.383  1.0343  0.3223  1.8665
  546EMI    C2"10371   5.498   5.270   2.590 -0.6393  0.7660 -0.0169
  546EMI    H2"10372   5.558   5.184   2.602  2.2372 -1.7574 -0.9168
  546EMI    H2"10373   5.502   5.325   2.685 -0.6012 -0.7671 -1.9836
  546EMI    H2"10374   5.410   5.222   2.557 -0.8905  0.7694 -1.6158
  547EMI     N110375   1.237   4.661   5.754 -0.2572  0.2698 -0.3318
  547EMI     C210376   1.360   4.604   5.756  0.3771 -0.2828  0.3162
  547EMI     N310377   1.347   4.476   5.779 -0.2783 -0.4849 -0.4671
  547EMI     C410378   1.214   4.450   5.789  0.1368 -0.1318 -0.4458
  547EMI     C510379   1.144   4.562   5.770 -0.0576  0.4074 -0.1865
  547EMI     H210380   1.454   4.655   5.748 -0.3116 -1.3356  0.4939
  547EMI     H410381   1.177   4.355   5.806 -1.2135 -0.6162  1.8769
  547EMI     H510382   1.037   4.565   5.772 -0.1392 -1.7350  0.4111
  547EMI    C1'10383   1.447   4.363   5.798  0.0001 -0.5102 -0.2214
  547EMI    H1'10384   1.431   4.295   5.718 -0.0381 -1.0962  2.0285
  547EMI    H1'10385   1.548   4.398   5.785 -3.6961  1.1860  0.9319
  547EMI    H1'10386   1.421   4.324   5.901 -2.3255  0.6888  2.5058
  547EMI    C1"10387   1.191   4.804   5.735 -0.3530  0.5694  0.0786
  547EMI    H1"10388   1.098   4.834   5.782 -2.4925 -1.4079  1.7060
  547EMI    H1"10389   1.180   4.819   5.631 -1.8577  1.0419  1.3689
  547EMI    C2"10390   1.298   4.905   5.792 -0.8729  0.3749 -0.4782
  547EMI    H2"10391   1.250   4.995   5.793  1.3441  1.6613  0.7390
  547EMI    H2"10392   1.321   4.872   5.894  0.7865 -1.0745  1.9471
  547EMI    H2"10393   1.389   4.902   5.730 -1.1396  0.0487 -2.3822
  548EMI     N110394   5.907   0.722   1.925  0.0604  0.9936 -0.3552
  548EMI     C210395   6.015   0.795   1.887 -0.1155  0.4441  0.1332
  548EMI     N310396   6.109   0.790   1.986 -0.3894 -0.3111  0.1054
  548EMI     C410397   6.060   0.700   2.081 -0.3217  0.6782 -0.4123
  548EMI     C510398   5.939   0.662   2.042  1.0918 -0.0727 -0.3252
  548EMI     H210399   6.033   0.858   1.801  1.8070 -0.7089 -0.3650
  548EMI     H410400   6.102   0.668   2.177 -1.1011  2.5698 -2.1857
  548EMI     H510401   5.880   0.590   2.100 -2.7810  2.6944 -0.1566
  548EMI    C1'10402   6.237   0.851   1.999  0.9336 -0.4610  0.3156
  548EMI    H1'10403   6.238   0.958   1.980 -2.8717  1.7464  1.9662
  548EMI    H1'10404   6.267   0.835   2.097 -0.3781  2.4277 -1.6358
  548EMI    H1'10405   6.308   0.810   1.929 -0.6308  1.6358  0.6574
  548EMI    C1"10406   5.773   0.707   1.851  0.4945  0.2721  0.7717
  548EMI    H1"10407   5.721   0.615   1.894 -0.1284 -1.6879  0.6287
  548EMI    H1"10408   5.801   0.693   1.751  0.0047 -1.3734 -1.3230
  548EMI    C2"10409   5.686   0.827   1.864 -0.4742  0.0375  0.5390
  548EMI    H2"10410   5.587   0.803   1.904 -2.6283  0.4886  0.3661
  548EMI    H2"10411   5.723   0.903   1.941  0.1482  2.2145 -0.7874
  548EMI    H2"10412   5.684   0.882   1.767  1.1307  0.4972  0.6256
  549EMI     N110413   2.321   5.702   4.055 -0.3672 -1.1589 -0.0235
  549EMI     C210414   2.195   5.658   4.027  0.3127  0.5395  0.0577
  549EMI     N310415   2.176   5.542   4.088 -0.8087  0.2222 -0.3668
  549EMI     C410416   2.293   5.516   4.156  0.7895 -0.1860  0.9249
  549EMI     C510417   2.382   5.612   4.131  0.9924 -0.3030 -0.6688
  549EMI     H210418   2.125   5.708   3.963  0.0693  0.6587 -0.3032
  549EMI     H410419   2.307   5.438   4.229 -3.0363  1.3405  0.2496
  549EMI     H510420   2.478   5.625   4.185 -0.9435 -2.1188 -0.2347
  549EMI    C1'10421   2.063   5.448   4.088  0.5400 -0.1626 -0.2624
  549EMI    H1'10422   2.041   5.409   4.183 -0.9266 -0.0961  1.5085
  549EMI    H1'10423   1.972   5.494   4.051 -3.1285  0.3960  0.1277
  549EMI    H1'10424   2.095   5.356   4.023  2.1381  0.7241  0.0401
  549EMI    C1"10425   2.383   5.838   4.033 -0.7664  0.0646 -0.7318
  549EMI    H1"10426   2.445   5.875   4.118  0.5830  1.7817  0.9062
  549EMI    H1"10427   2.303   5.908   4.026  0.8471  0.5775  0.6713
  549EMI    C2"10428   2.467   5.856   3.908 -0.4591 -0.2127  0.4220
  549EMI    H2"10429   2.542   5.781   3.898 -0.8023  2.5938  0.5064
  549EMI    H2"10430   2.404   5.849   3.812 -0.2103 -0.8456 -1.3257
  549EMI    H2"10431   2.519   5.950   3.915 -4.1902 -0.9449  2.3818
  550EMI     N110432   3.937   4.695   1.790 -0.2284  0.1658  0.1320
  550EMI     C210433   4.040   4.774   1.751 -0.1509  0.7241  0.1428
  550EMI     N310434   4.067   4.756   1.620 -0.3758  0.3269  0.4646
  550EMI     C410435   3.973   4.665   1.570 -0.2893  0.0466 -0.4275
  550EMI     C510436   3.893   4.634   1.673 -0.4273  0.8695 -0.0441
  550EMI     H210437   4.105   4.838   1.818  3.4105  0.8975  2.2279
  550EMI     H410438   3.960   4.640   1.462 -0.7552  0.1137 -2.2912
  550EMI     H510439   3.795   4.574   1.675 -0.6805 -0.5610  1.5812
  550EMI    C1'10440   4.175   4.812   1.540  0.3081 -0.8557  1.0071
  550EMI    H1'10441   4.138   4.899   1.485 -1.3980 -1.2520  1.1154
  550EMI    H1'10442   4.269   4.839   1.604  0.7513  1.1372  0.7565
  550EMI    H1'10443   4.206   4.740   1.463  0.2550  0.0232 -1.5577
  550EMI    C1"10444   3.891   4.660   1.922 -0.3484 -0.7100 -0.2017
  550EMI    H1"10445   3.780   4.673   1.925 -0.3024 -2.5262 -3.0464
  550EMI    H1"10446   3.930   4.725   1.990 -0.8510 -0.6689 -0.1119
  550EMI    C2"10447   3.937   4.520   1.971 -0.0593  0.3665 -1.0212
  550EMI    H2"10448   3.872   4.447   1.922 -1.3019  0.8160  0.1250
  550EMI    H2"10449   4.042   4.505   1.953  0.0558  0.6602  0.2399
  550EMI    H2"10450   3.927   4.523   2.075  0.3783  0.5268 -1.7432
  551EMI     N110451   2.109   3.613   6.007 -0.0292  0.1933 -0.2714
  551EMI     C210452   2.196   3.641   6.107  0.4541  0.0714 -0.3755
  551EMI     N310453   2.228   3.527   6.168 -0.6092  0.3517 -0.6723
  551EMI     C410454   2.158   3.428   6.109  0.2838  0.5479 -0.0220
  551EMI     C510455   2.080   3.479   6.015 -0.3116 -0.2337 -0.2473
  551EMI     H210456   2.229   3.741   6.125 -0.6334 -2.1908  2.1672
  551EMI     H410457   2.160   3.326   6.146 -0.8613 -1.0110 -0.9521
  551EMI     H510458   2.006   3.429   5.960  2.6761  1.0876  0.9535
  551EMI    C1'10459   2.346   3.506   6.263  0.0171  0.8091  0.1562
  551EMI    H1'10460   2.348   3.401   6.291  2.0949  0.3835  1.0651
  551EMI    H1'10461   2.443   3.524   6.217  0.5880 -1.4687 -0.9460
  551EMI    H1'10462   2.342   3.572   6.353  1.0461 -1.9240 -1.3525
  551EMI    C1"10463   2.056   3.710   5.904 -0.0434  0.1257 -0.2418
  551EMI    H1"10464   2.072   3.818   5.933  0.3638  0.6531  2.8101
  551EMI    H1"10465   1.953   3.691   5.902  1.3722 -0.1115  0.2024
  551EMI    C2"10466   2.118   3.690   5.766  0.1817 -0.0047 -0.2425
  551EMI    H2"10467   2.097   3.773   5.703  0.4436  1.3617 -2.8424
  551EMI    H2"10468   2.224   3.669   5.771 -1.4228 -0.5200 -0.2059
  551EMI    H2"10469   2.079   3.608   5.708  2.1280 -0.3547  0.7568
  552EMI     N110470   2.975   1.446   0.563 -0.5301 -0.0511  1.1567
  552EMI     C210471   2.930   1.574   0.579 -0.5441 -0.0127  0.7021
  552EMI     N310472   2.808   1.570   0.634 -0.0824  0.0287  0.1522
  552EMI     C410473   2.773   1.435   0.656  1.1780  0.1785  0.0623
  552EMI     C510474   2.873   1.364   0.611  0.7730 -0.9450  0.2093
  552EMI     H210475   2.981   1.669   0.552 -2.7467 -2.3931  1.0357
  552EMI     H410476   2.680   1.396   0.701  1.6425 -1.0717 -1.0420
  552EMI     H510477   2.886   1.257   0.628  1.1470  3.6872 -0.3385
  552EMI    C1'10478   2.725   1.677   0.679 -0.1709 -0.6175 -0.4065
  552EMI    H1'10479   2.654   1.693   0.596  1.3210 -0.0159 -1.4640
  552EMI    H1'10480   2.665   1.651   0.764  1.4901  1.6063  1.0238
  552EMI    H1'10481   2.784   1.767   0.702  1.0274 -2.1414  1.1594
  552EMI    C1"10482   3.114   1.398   0.523  0.2729 -0.1792  0.4936
  552EMI    H1"10483   3.162   1.480   0.469 -2.9726  1.8835 -1.7155
  552EMI    H1"10484   3.112   1.306   0.468  0.6323  0.1177 -2.9845
  552EMI    C2"10485   3.179   1.378   0.656  0.3288  0.3745 -0.6042
  552EMI    H2"10486   3.274   1.322   0.635 -0.2778  2.1776 -0.4279
  552EMI    H2"10487   3.219   1.470   0.700  1.7913  1.5000 -2.2312
  552EMI    H2"10488   3.110   1.328   0.721 -1.9163  1.5804 -2.3552
  553EMI     N110489   1.898   6.252   5.541  0.2197 -0.5050  0.4259
  553EMI     C210490   2.022   6.247   5.494 -0.1595  0.1455  0.0972
  553EMI     N310491   2.076   6.374   5.480  0.8425  0.0449  0.1245
  553EMI     C410492   1.973   6.458   5.515  0.3141 -0.4388  0.4222
  553EMI     C510493   1.864   6.386   5.558 -0.2235 -0.2436 -0.0164
  553EMI     H210494   2.086   6.158   5.484  3.2610  1.9192 -2.6112
  553EMI     H410495   1.977   6.567   5.497  0.9674 -1.5593  2.9434
  553EMI     H510496   1.762   6.411   5.582 -1.5095 -1.9899  1.3514
  553EMI    C1'10497   2.209   6.414   5.431  0.0710  0.1097 -0.1927
  553EMI    H1'10498   2.236   6.365   5.333  1.8174 -0.7845 -1.3947
  553EMI    H1'10499   2.221   6.523   5.415 -0.1877 -0.3979  0.9500
  553EMI    H1'10500   2.292   6.377   5.500  0.0300 -1.3466  1.2320
  553EMI    C1"10501   1.800   6.142   5.555  0.4128 -0.2403  0.6035
  553EMI    H1"10502   1.847   6.065   5.496 -0.5767 -1.4896  0.6172
  553EMI    H1"10503   1.705   6.171   5.510  1.1591 -1.1392 -0.4682
  553EMI    C2"10504   1.780   6.097   5.695  0.1048  0.1496 -0.2613
  553EMI    H2"10505   1.725   6.168   5.753 -0.0946 -0.8558 -2.0261
  553EMI    H2"10506   1.728   5.998   5.709  0.2904 -0.1240  0.4810
  553EMI    H2"10507   1.873   6.081   5.747 -4.4629  0.6513  0.7951
  554EMI     N110508   2.537   2.405   1.274  0.0628 -0.4810  0.3340
  554EMI     C210509   2.435   2.335   1.219  0.9814  0.3419 -0.4277
  554EMI     N310510   2.390   2.238   1.300  0.2642 -0.1495  0.3839
  554EMI     C410511   2.480   2.240   1.410  0.5303 -0.3195 -0.3359
  554EMI     C510512   2.568   2.343   1.392  0.1895  0.5870  0.2211
  554EMI     H210513   2.388   2.354   1.124 -3.5537  0.8724  1.2362
  554EMI     H410514   2.479   2.178   1.504  1.4003 -1.5127  0.4363
  554EMI     H510515   2.646   2.369   1.460 -2.7360  0.3980  2.3989
  554EMI    C1'10516   2.282   2.149   1.271 -0.0574  0.3691  0.2850
  554EMI    H1'10517   2.207   2.221   1.237  2.4756 -0.2084  2.5279
  554EMI    H1'10518   2.314   2.076   1.198 -0.6989  2.4827  0.8278
  554EMI    H1'10519   2.246   2.116   1.370 -0.5827 -0.3138  0.5798
  554EMI    C1"10520   2.620   2.513   1.215 -0.3817 -0.7738  0.7291
  554EMI    H1"10521   2.609   2.594   1.286 -1.1466  1.3976 -1.3626
  554EMI    H1"10522   2.574   2.545   1.123 -0.3482 -1.1609  1.2132
  554EMI    C2"10523   2.770   2.470   1.200  0.8961 -0.1316  0.6133
  554EMI    H2"10524   2.805   2.442   1.302 -1.0317 -0.6712  2.2390
  554EMI    H2"10525   2.771   2.394   1.125  1.8456  2.3396  1.2957
  554EMI    H2"10526   2.824   2.555   1.158 -0.7920  1.4338 -0.3264
  555EMI     N110527   5.839   4.228   0.154  0.5957  0.3979  0.3377
  555EMI     C210528   5.870   4.342   0.101  0.5659  0.4396  0.5110
  555EMI     N310529   5.854   4.337  -0.034  0.4760  0.3711  0.2659
  555EMI     C410530   5.799   4.213  -0.067 -0.0630 -0.6985 -0.1641
  555EMI     C510531   5.794   4.146   0.047 -0.4102 -0.1899  0.4231
  555EMI     H210532   5.908   4.426   0.159  0.3445  2.6237  2.2929
  555EMI     H410533   5.767   4.173  -0.165 -0.6990  1.0318 -1.1481
  555EMI     H510534   5.764   4.042   0.060  0.4460 -0.1069 -4.2514
  555EMI    C1'10535   5.850   4.447  -0.135  0.1817 -0.5128  0.1612
  555EMI    H1'10536   5.750   4.460  -0.178  2.8524  0.8017 -0.2320
  555EMI    H1'10537   5.881   4.538  -0.087  0.7002  0.9735  0.4162
  555EMI    H1'10538   5.918   4.425  -0.216 -0.0833 -1.3070  2.9240
  555EMI    C1"10539   5.828   4.182   0.294 -0.0352 -0.3407  0.3587
  555EMI    H1"10540   5.918   4.137   0.329  0.5392  0.7384  1.5758
  555EMI    H1"10541   5.759   4.094   0.297  2.4557  1.8120 -1.1919
  555EMI    C2"10542   5.791   4.285   0.396 -0.4937  0.7398  0.4669
  555EMI    H2"10543   5.731   4.372   0.353  0.9267 -0.4946  0.3439
  555EMI    H2"10544   5.744   4.244   0.486 -2.6626  0.8438  0.7259
  555EMI    H2"10545   5.889   4.334   0.428  1.2138  0.5717 -1.9213
  556EMI     N110546   0.597   0.031   2.322 -0.3325  0.4283 -0.0822
  556EMI     C210547   0.632  -0.083   2.387 -0.5816 -0.0944  0.3056
  556EMI     N310548   0.581  -0.193   2.330  0.2230  0.1207 -0.1055
  556EMI     C410549   0.497  -0.144   2.229  0.0986 -0.0640  1.0137
  556EMI     C510550   0.517  -0.007   2.216 -0.4560 -0.6166 -0.4662
  556EMI     H210551   0.689  -0.084   2.476 -0.4404 -2.6532  3.5203
  556EMI     H410552   0.436  -0.205   2.160  1.0710 -0.9384  0.4564
  556EMI     H510553   0.471   0.053   2.138  0.7059  0.4363  0.6920
  556EMI    C1'10554   0.581  -0.332   2.361 -0.6346 -0.3412 -0.1180
  556EMI    H1'10555   0.624  -0.346   2.466 -0.2264 -2.0395  3.2580
  556EMI    H1'10556   0.475  -0.357   2.368 -2.1439 -0.9940  2.2418
  556EMI    H1'10557   0.632  -0.388   2.279  1.2485  0.6437  2.3450
  556EMI    C1"10558   0.627   0.178   2.339 -0.8273  0.2284  0.2091
  556EMI    H1"10559   0.552   0.244   2.308 -0.7265  1.4833 -0.5262
  556EMI    H1"10560   0.712   0.200   2.279 -1.6508 -1.0751 -0.7673
  556EMI    C2"10561   0.649   0.213   2.484  0.3897  1.0694  0.3140
  556EMI    H2"10562   0.588   0.153   2.549  0.9231  1.2253 -1.9692
  556EMI    H2"10563   0.759   0.196   2.508  1.9754 -1.5229  0.4130
  556EMI    H2"10564   0.616   0.308   2.500 -0.8028 -0.5951 -1.7095
  557EMI     N110565   1.804   4.709   4.407 -0.3744 -0.5556 -0.3155
  557EMI     C210566   1.931   4.732   4.360  0.9424  0.3782 -0.4712
  557EMI     N310567   1.933   4.763   4.230  0.0547 -0.0000  0.9011
  557EMI     C410568   1.802   4.772   4.192  0.4901 -0.3112 -0.8650
  557EMI     C510569   1.724   4.739   4.296  0.5497  0.2516  0.4709
  557EMI     H210570   2.023   4.714   4.423  0.9707 -1.6792 -2.4692
  557EMI     H410571   1.775   4.800   4.087 -2.3363 -1.9529 -0.1179
  557EMI     H510572   1.617   4.739   4.282  0.2879 -0.6221 -0.4233
  557EMI    C1'10573   2.049   4.785   4.145  0.1279  0.0815  0.4037
  557EMI    H1'10574   2.113   4.871   4.177 -0.3732  0.0499  2.5804
  557EMI    H1'10575   2.107   4.694   4.142  0.9871  0.6423  0.2441
  557EMI    H1'10576   2.024   4.817   4.043  1.0867 -0.3350  1.4341
  557EMI    C1"10577   1.751   4.659   4.539 -1.0748 -0.5069  0.8465
  557EMI    H1"10578   1.651   4.678   4.556 -1.7144 -0.0044 -1.7441
  557EMI    H1"10579   1.816   4.714   4.612  4.9214  1.2039  0.4432
  557EMI    C2"10580   1.791   4.517   4.561 -0.2184 -0.2252 -0.2936
  557EMI    H2"10581   1.901   4.503   4.536  0.8357 -0.7931  2.5838
  557EMI    H2"10582   1.775   4.487   4.660  0.9934  2.0112  0.5835
  557EMI    H2"10583   1.738   4.456   4.490  0.9108 -1.0502  1.1301
  558EMI     N110584   6.322   1.197   4.165  0.0459 -0.2589 -0.0799
  558EMI     C210585   6.419   1.205   4.072  0.0405  0.1395 -0.4229
  558EMI     N310586   6.535   1.169   4.132  0.6748 -0.2056  0.6971
  558EMI     C410587   6.517   1.145   4.265  0.0978 -0.2092 -0.2468
  558EMI     C510588   6.381   1.146   4.281  0.0204  0.6931  0.3773
  558EMI     H210589   6.423   1.247   3.970  4.0013  0.8953  1.9817
  558EMI     H410590   6.587   1.106   4.332  0.2389 -1.4925 -2.2161
  558EMI     H510591   6.327   1.113   4.367  0.5666  0.5769 -1.8123
  558EMI    C1'10592   6.665   1.139   4.073  0.2206 -0.1700  0.1578
  558EMI    H1'10593   6.682   1.032   4.092 -0.4600  1.1694  0.4812
  558EMI    H1'10594   6.659   1.141   3.967 -1.0951 -0.3498 -1.2698
  558EMI    H1'10595   6.733   1.208   4.119 -0.0569  1.3551 -0.4817
  558EMI    C1"10596   6.178   1.236   4.151 -0.1143  0.4647 -0.6733
  558EMI    H1"10597   6.156   1.338   4.189 -0.1006  2.7939 -0.2775
  558EMI    H1"10598   6.120   1.171   4.212 -2.8048  0.5832  1.1596
  558EMI    C2"10599   6.138   1.224   4.008  0.2846  0.0780 -0.3368
  558EMI    H2"10600   6.188   1.309   3.956  0.8239  1.7384  0.5572
  558EMI    H2"10601   6.155   1.130   3.959 -0.0527  0.8264 -1.6917
  558EMI    H2"10602   6.035   1.244   4.005 -3.4274 -0.3345  1.7043
  559EMI     N110603   5.384   1.139   5.710  0.7189  0.0011  0.8539
  559EMI     C210604   5.307   1.119   5.816 -0.0015 -1.0034 -0.2813
  559EMI     N310605   5.182   1.152   5.790  0.3783 -0.6677  0.2251
  559EMI     C410606   5.175   1.193   5.657  0.3641  0.4633 -0.2081
  559EMI     C510607   5.304   1.189   5.607  0.3236  0.7789  0.1520
  559EMI     H210608   5.354   1.069   5.898  0.0220  0.1941 -1.1202
  559EMI     H410609   5.089   1.236   5.604 -3.6173 -1.2554 -0.4412
  559EMI     H510610   5.340   1.212   5.508  1.6361 -2.0704 -3.1790
  559EMI    C1'10611   5.071   1.146   5.878 -0.5152 -0.4778 -0.0507
  559EMI    H1'10612   5.085   1.223   5.954  0.3544 -1.0314 -1.2108
  559EMI    H1'10613   4.986   1.173   5.817  1.2943  0.2094 -0.0121
  559EMI    H1'10614   5.054   1.042   5.909 -2.2379 -2.3233 -1.2163
  559EMI    C1"10615   5.533   1.117   5.697 -0.0926 -0.4483  0.1015
  559EMI    H1"10616   5.582   1.188   5.764 -1.2789 -0.1549 -0.6967
  559EMI    H1"10617   5.555   1.149   5.592 -0.9251  0.0070  0.6044
  559EMI    C2"10618   5.592   0.982   5.722  0.7162  0.3070  0.5274
  559EMI    H2"10619   5.557   0.902   5.654 -3.0147 -0.9405  3.1389
  559EMI    H2"10620   5.702   0.991   5.703  0.3328  1.6267  3.5739
  559EMI    H2"10621   5.581   0.943   5.817 -0.1116 -0.2196 -1.6518
  560EMI     N110622   0.151   0.768   4.828  0.0530 -0.1905  0.5308
  560EMI     C210623   0.096   0.875   4.891  0.6193  1.1478 -0.2719
  560EMI     N310624   0.063   0.838   5.016 -0.0103  0.5109  0.5790
  560EMI     C410625   0.099   0.704   5.029 -0.3168  0.6966  0.0387
  560EMI     C510626   0.148   0.659   4.911  1.3824 -0.8315  0.1613
  560EMI     H210627   0.086   0.973   4.854  0.2904  2.9932  3.5560
  560EMI     H410628   0.073   0.641   5.116 -4.1550 -1.6375  0.3265
  560EMI     H510629   0.171   0.556   4.898 -1.2811  0.2723 -1.8889
  560EMI    C1'10630  -0.010   0.906   5.122  0.6004  0.1428  0.7311
  560EMI    H1'10631  -0.115   0.900   5.112 -0.4924  1.0045  1.1299
  560EMI    H1'10632   0.022   0.863   5.219 -2.7799 -0.5171  2.3592
  560EMI    H1'10633   0.025   1.004   5.134  2.4765 -1.9053 -1.4583
  560EMI    C1"10634   0.185   0.760   4.680  0.0046  0.1145 -0.3650
  560EMI    H1"10635   0.144   0.842   4.617  2.5339 -2.1477 -2.6185
  560EMI    H1"10636   0.138   0.664   4.648 -0.3392 -1.8389 -0.0010
  560EMI    C2"10637   0.336   0.768   4.643 -0.7347  0.0917 -0.1836
  560EMI    H2"10638   0.357   0.777   4.533  0.4439 -0.0694 -1.4151
  560EMI    H2"10639   0.383   0.856   4.681 -0.6727 -2.7357 -1.3189
  560EMI    H2"10640   0.398   0.682   4.679  2.2639 -1.1115 -0.0743
  561EMI     N110641   5.869   0.153   2.179  0.1653  0.4446  0.1001
  561EMI     C210642   5.933   0.030   2.194  0.8596 -0.4138  0.0318
  561EMI     N310643   5.847  -0.055   2.251  0.8380  0.4651 -0.3531
  561EMI     C410644   5.725   0.005   2.257  0.1730 -0.4801  0.2367
  561EMI     C510645   5.740   0.135   2.210  0.6718 -0.0508 -0.6151
  561EMI     H210646   6.042   0.017   2.182 -2.0330 -2.0377 -0.0111
  561EMI     H410647   5.627  -0.027   2.287  0.6603  2.0366 -2.3826
  561EMI     H510648   5.657   0.198   2.196 -2.0544 -0.6110  0.3594
  561EMI    C1'10649   5.874  -0.193   2.292 -0.6329  1.0488  0.2967
  561EMI    H1'10650   5.965  -0.196   2.355  2.4219  1.9160  1.2167
  561EMI    H1'10651   5.786  -0.224   2.349 -1.2425 -0.5149 -1.8397
  561EMI    H1'10652   5.882  -0.255   2.207  0.6919  0.4781  2.3961
  561EMI    C1"10653   5.929   0.288   2.150  0.5200 -0.0960 -0.1325
  561EMI    H1"10654   5.975   0.328   2.243  0.1123 -0.7824  2.7636
  561EMI    H1"10655   5.859   0.364   2.125  1.9942 -1.3840  0.5819
  561EMI    C2"10656   6.033   0.257   2.041  0.6445 -0.2636 -0.0836
  561EMI    H2"10657   6.091   0.359   2.015 -0.2184  2.3427  0.2733
  561EMI    H2"10658   6.108   0.187   2.074 -0.2765 -1.3550  1.3694
  561EMI    H2"10659   5.987   0.237   1.948 -0.8039 -0.0428 -0.3316
  562EMI     N110660   4.455   0.643   1.413 -0.2572 -0.7234  0.0859
  562EMI     C210661   4.573   0.619   1.351 -0.4898 -0.0023 -0.7731
  562EMI     N310662   4.554   0.622   1.221  0.6206 -0.6825  0.5180
  562EMI     C410663   4.420   0.644   1.198  0.1140 -0.0367 -0.2389
  562EMI     C510664   4.358   0.655   1.320 -0.1101  0.0260  0.6872
  562EMI     H210665   4.667   0.603   1.406  0.7526  0.0761 -2.4923
  562EMI     H410666   4.377   0.652   1.099  1.3401 -0.3972  1.7972
  562EMI     H510667   4.248   0.675   1.335 -1.0076  0.0802  0.9667
  562EMI    C1'10668   4.651   0.610   1.107  0.3807 -0.4138 -0.6382
  562EMI    H1'10669   4.630   0.522   1.055 -1.5769 -0.2620  0.3743
  562EMI    H1'10670   4.645   0.702   1.052  0.8752 -1.4631  0.8378
  562EMI    H1'10671   4.756   0.613   1.138 -0.1679  0.3298 -2.4041
  562EMI    C1"10672   4.415   0.635   1.557 -0.1326 -0.5605  0.9208
  562EMI    H1"10673   4.409   0.528   1.589  1.8793 -0.2338  1.5473
  562EMI    H1"10674   4.310   0.668   1.570 -1.4488 -1.1792 -2.0633
  562EMI    C2"10675   4.509   0.718   1.645  0.3122 -0.0911  0.0174
  562EMI    H2"10676   4.605   0.718   1.601  2.2901 -2.2902 -1.3928
  562EMI    H2"10677   4.457   0.817   1.649  1.5836  0.5400 -2.0169
  562EMI    H2"10678   4.502   0.677   1.741 -1.3776  0.8263  0.7977
  563EMI     N110679   5.321   2.321   2.525 -0.5904 -0.1132  0.3971
  563EMI     C210680   5.224   2.247   2.466  0.8209 -0.2056 -1.1721
  563EMI     N310681   5.235   2.121   2.508 -0.1588  0.4381  0.3518
  563EMI     C410682   5.340   2.116   2.601 -0.0984 -0.4296  0.8610
  563EMI     C510683   5.392   2.241   2.610  0.2514  0.9294 -0.0886
  563EMI     H210684   5.154   2.287   2.395  0.5952 -0.7158  2.4732
  563EMI     H410685   5.371   2.028   2.653  0.0603 -0.3658  2.3359
  563EMI     H510686   5.477   2.269   2.663  0.4306  0.2150  2.8458
  563EMI    C1'10687   5.153   2.003   2.485 -0.3645 -0.3877  0.4128
  563EMI    H1'10688   5.051   2.030   2.460 -1.9820  2.5064 -1.9340
  563EMI    H1'10689   5.191   1.937   2.404 -0.4475 -1.3681  1.0736
  563EMI    H1'10690   5.156   1.942   2.576  2.3786  0.5497  0.4983
  563EMI    C1"10691   5.356   2.461   2.494  0.2808 -0.0704  0.2184
  563EMI    H1"10692   5.329   2.527   2.578 -0.6390 -0.6022 -1.4127
  563EMI    H1"10693   5.305   2.491   2.405  2.2684  0.6651 -2.5186
  563EMI    C2"10694   5.507   2.481   2.465  0.0019  0.6755  0.1900
  563EMI    H2"10695   5.522   2.582   2.440 -1.1754 -1.2390  0.6102
  563EMI    H2"10696   5.560   2.449   2.554 -1.6314  0.7439 -0.9163
  563EMI    H2"10697   5.548   2.417   2.377  4.1619 -2.0463 -1.4739
  564EMI     N110698   2.204   4.223   5.094  0.3753  0.1037  0.0854
  564EMI     C210699   2.165   4.315   5.180 -0.5341 -0.5849  0.0392
  564EMI     N310700   2.087   4.401   5.121  0.8711  0.4759 -0.6012
  564EMI     C410701   2.078   4.368   4.990  0.2459 -0.5153  0.4746
  564EMI     C510702   2.148   4.257   4.970 -0.0712 -0.1869  0.0660
  564EMI     H210703   2.196   4.338   5.284  1.4934 -1.9327  0.9873
  564EMI     H410704   2.021   4.425   4.919  0.8110 -0.9842  1.1142
  564EMI     H510705   2.166   4.197   4.881  1.0110 -2.4274 -0.1236
  564EMI    C1'10706   1.999   4.508   5.177  0.1323 -0.4593  0.4858
  564EMI    H1'10707   1.902   4.468   5.171 -1.0435 -1.5011 -0.4834
  564EMI    H1'10708   2.015   4.531   5.286 -2.4746 -2.8991 -2.3139
  564EMI    H1'10709   1.997   4.593   5.104 -3.0859 -0.3064  0.5388
  564EMI    C1"10710   2.300   4.112   5.111 -0.5226 -0.9412 -0.2318
  564EMI    H1"10711   2.289   4.047   5.024 -0.1473 -0.3174  0.1772
  564EMI    H1"10712   2.283   4.052   5.192 -2.7918 -1.6371 -0.1045
  564EMI    C2"10713   2.442   4.164   5.114  0.8290 -0.1544 -1.0514
  564EMI    H2"10714   2.471   4.229   5.034 -1.5801  0.0719 -0.9904
  564EMI    H2"10715   2.453   4.225   5.205  2.4580  1.3054 -1.4005
  564EMI    H2"10716   2.515   4.087   5.121  0.4291 -0.4586  1.7449
  565EMI     N110717   4.432   2.749   3.087  0.3140 -0.4903  0.0763
  565EMI     C210718   4.414   2.650   3.175  0.0055  0.6028 -0.3193
  565EMI     N310719   4.299   2.581   3.138 -0.1591  0.2197  0.5834
  565EMI     C410720   4.258   2.638   3.015 -0.0181  0.1978 -0.1404
  565EMI     C510721   4.339   2.740   2.987 -0.1671  0.6412 -0.3480
  565EMI     H210722   4.474   2.617   3.264  0.8192  2.8549  1.4296
  565EMI     H410723   4.177   2.599   2.951  4.7341  0.4726 -0.5506
  565EMI     H510724   4.334   2.810   2.897 -0.6152  1.1802 -3.0782
  565EMI    C1'10725   4.235   2.463   3.198  0.0477 -0.2371  0.1158
  565EMI    H1'10726   4.126   2.478   3.192 -1.3601  0.5703 -2.0757
  565EMI    H1'10727   4.259   2.374   3.146  0.0541 -1.4700  0.0758
  565EMI    H1'10728   4.248   2.466   3.305 -0.4327 -1.7263 -0.6595
  565EMI    C1"10729   4.539   2.853   3.090 -0.8928  0.4026  0.5660
  565EMI    H1"10730   4.583   2.848   2.987  0.6273 -1.0872  0.2265
  565EMI    H1"10731   4.617   2.814   3.157 -0.4052 -1.6451 -0.8985
  565EMI    C2"10732   4.503   2.994   3.122 -0.3134 -0.1555 -0.2679
  565EMI    H2"10733   4.445   2.995   3.211  1.4579 -1.4066 -1.9705
  565EMI    H2"10734   4.603   3.047   3.134 -2.9647 -1.8001 -0.8275
  565EMI    H2"10735   4.452   3.047   3.040  0.4347 -1.2797  0.6677
  566EMI     N110736   2.102   1.172   0.764 -0.5517 -0.4444  0.4685
  566EMI     C210737   2.237   1.201   0.752  0.3352 -0.2845  0.5574
  566EMI     N310738   2.290   1.215   0.870 -0.2531  0.1225  0.0370
  566EMI     C410739   2.194   1.189   0.966 -0.1537 -0.4105 -0.6660
  566EMI     C510740   2.076   1.173   0.897  0.1250  0.3833  0.1840
  566EMI     H210741   2.289   1.234   0.660  0.8348 -2.6012 -2.8208
  566EMI     H410742   2.214   1.195   1.072 -0.3820 -2.7076 -0.9091
  566EMI     H510743   1.980   1.155   0.944 -1.4536 -0.6958 -0.7255
  566EMI    C1'10744   2.420   1.266   0.916  0.1551 -0.2188  0.2638
  566EMI    H1'10745   2.496   1.211   0.862 -0.4212 -0.4225 -0.0051
  566EMI    H1'10746   2.424   1.375   0.894 -1.3525 -0.2985 -0.4876
  566EMI    H1'10747   2.427   1.246   1.027 -0.8356 -0.4347  0.9814
  566EMI    C1"10748   1.987   1.159   0.668  0.3929 -0.2050 -0.6505
  566EMI    H1"10749   1.949   1.061   0.674  1.3762  0.8947 -3.4152
  566EMI    H1"10750   2.025   1.179   0.568  1.5548 -1.2709  1.0454
  566EMI    C2"10751   1.884   1.265   0.706 -0.3254  0.3552 -0.2135
  566EMI    H2"10752   1.817   1.292   0.626 -1.6247 -2.3916 -0.7597
  566EMI    H2"10753   1.828   1.236   0.801 -1.4864 -0.5552  1.4879
  566EMI    H2"10754   1.934   1.358   0.721  0.7944 -2.3116  0.2863
  567EMI     N110755   4.254   2.897   0.224  0.1237  0.2989 -0.1122
  567EMI     C210756   4.294   3.014   0.169  0.6831 -0.9000  0.4510
  567EMI     N310757   4.201   3.063   0.089  0.2153  0.0234  1.2001
  567EMI     C410758   4.102   2.965   0.076  0.5745  1.1736 -0.1560
  567EMI     C510759   4.134   2.863   0.158 -0.1422 -0.4049 -0.3118
  567EMI     H210760   4.387   3.057   0.189  0.6085 -1.0917 -0.7394
  567EMI     H410761   4.016   2.975   0.018  1.1613  0.7161 -0.0575
  567EMI     H510762   4.072   2.775   0.181  0.1959  1.3265  2.8041
  567EMI    C1'10763   4.205   3.181  -0.004  0.1241 -0.2982  0.0218
  567EMI    H1'10764   4.312   3.194  -0.034  0.5297  0.2262 -0.0590
  567EMI    H1'10765   4.145   3.159  -0.086  3.5573 -1.1089  1.2331
  567EMI    H1'10766   4.178   3.276   0.052  0.5801  0.3323 -0.3138
  567EMI    C1"10767   4.324   2.805   0.313 -0.6104 -0.1547 -0.1632
  567EMI    H1"10768   4.246   2.750   0.358 -0.2938 -0.5108 -1.3203
  567EMI    H1"10769   4.373   2.871   0.388  2.0030  2.0941  0.2624
  567EMI    C2"10770   4.431   2.717   0.254 -0.0218  0.1944  0.1828
  567EMI    H2"10771   4.463   2.653   0.338  1.7862  0.4683  0.6720
  567EMI    H2"10772   4.388   2.654   0.175 -2.0923 -1.3971 -0.5877
  567EMI    H2"10773   4.517   2.773   0.220  2.8634 -0.3398 -2.3837
  568EMI     N110774   5.030   4.315   5.712  0.3247 -0.1148  0.5756
  568EMI     C210775   4.953   4.244   5.800 -0.3174 -0.9043  0.6003
  568EMI     N310776   4.828   4.291   5.798  0.0218  0.6953  0.1229
  568EMI     C410777   4.824   4.386   5.701 -0.6175  0.4099  1.2699
  568EMI     C510778   4.949   4.405   5.652 -0.3625  0.5980 -0.6057
  568EMI     H210779   4.993   4.164   5.866  0.7695 -0.5654 -1.2716
  568EMI     H410780   4.736   4.430   5.660 -0.2103 -0.9733  1.0894
  568EMI     H510781   4.982   4.473   5.576 -1.4129  0.7214 -0.1776
  568EMI    C1'10782   4.718   4.227   5.863  0.5584 -0.3528 -0.4063
  568EMI    H1'10783   4.704   4.287   5.951  1.0556 -0.0494  1.0493
  568EMI    H1'10784   4.621   4.244   5.815 -0.4775  0.3991  0.1414
  568EMI    H1'10785   4.737   4.121   5.875 -1.3565  1.7851  2.8181
  568EMI    C1"10786   5.179   4.305   5.683  0.0235 -0.7847  0.6835
  568EMI    H1"10787   5.230   4.380   5.744  0.2906  0.8624  0.4999
  568EMI    H1"10788   5.193   4.333   5.576 -1.9234  0.4280  0.5744
  568EMI    C2"10789   5.237   4.166   5.705  0.2651 -0.5050  0.0161
  568EMI    H2"10790   5.168   4.098   5.644 -0.4309 -0.6999  0.0833
  568EMI    H2"10791   5.338   4.160   5.670 -1.7131  0.7991 -0.8335
  568EMI    H2"10792   5.238   4.135   5.814 -0.6243  0.0681 -1.4724
  569EMI     N110793   2.441   2.302   4.488  0.0469  0.1433  0.7562
  569EMI     C210794   2.378   2.418   4.458 -0.7829 -0.4896  0.2083
  569EMI     N310795   2.337   2.475   4.571 -0.4850 -0.6804  0.3766
  569EMI     C410796   2.362   2.389   4.675  0.5210 -0.0554 -1.1784
  569EMI     C510797   2.423   2.281   4.622 -0.1151  0.4821  0.4629
  569EMI     H210798   2.367   2.452   4.363  3.1290  0.0126  2.7735
  569EMI     H410799   2.347   2.404   4.783  1.8737  1.9179 -0.4881
  569EMI     H510800   2.461   2.205   4.689 -2.0692 -0.0915  0.2017
  569EMI    C1'10801   2.257   2.600   4.593  0.1385 -0.6726 -0.3095
  569EMI    H1'10802   2.176   2.577   4.660  2.4352  1.2853  1.4678
  569EMI    H1'10803   2.316   2.681   4.643  0.1554 -0.5715  2.4297
  569EMI    H1'10804   2.212   2.640   4.508 -0.1876  0.1942 -0.2494
  569EMI    C1"10805   2.531   2.220   4.404 -0.0536 -0.0939  0.1507
  569EMI    H1"10806   2.566   2.140   4.469 -0.7172  1.2782  3.9325
  569EMI    H1"10807   2.618   2.272   4.362 -0.1084 -1.7485 -0.7701
  569EMI    C2"10808   2.458   2.148   4.288 -0.0021  0.4522 -0.0204
  569EMI    H2"10809   2.389   2.226   4.247 -0.7912  1.6314  3.2671
  569EMI    H2"10810   2.521   2.131   4.204 -0.8284 -2.0434 -1.4522
  569EMI    H2"10811   2.411   2.054   4.331 -3.0818 -0.5121  0.5666
  570EMI     N110812   4.159   0.613   5.987  0.5150  0.5944 -0.0312
  570EMI     C210813   4.210   0.523   6.070 -0.3599 -0.0683  0.1173
  570EMI     N310814   4.193   0.555   6.201  0.1216  0.1376  0.6025
  570EMI     C410815   4.134   0.680   6.189  0.0244 -1.2782  0.2023
  570EMI     C510816   4.113   0.716   6.062  0.4487  0.0786 -0.1432
  570EMI     H210817   4.271   0.444   6.029  1.7293 -1.5128  0.3864
  570EMI     H410818   4.106   0.744   6.268 -0.0489 -1.2302  0.0332
  570EMI     H510819   4.062   0.802   6.017 -0.7696 -0.3116  0.9145
  570EMI    C1'10820   4.245   0.501   6.330  0.5580 -0.3820  0.0684
  570EMI    H1'10821   4.163   0.513   6.398  3.5377 -3.3040 -0.9520
  570EMI    H1'10822   4.269   0.394   6.326  2.0810  2.8465 -1.4101
  570EMI    H1'10823   4.331   0.551   6.371 -1.9537 -1.0049 -0.1021
  570EMI    C1"10824   4.167   0.621   5.837  0.1255  0.6191 -0.4293
  570EMI    H1"10825   4.101   0.702   5.795  0.9232  2.7926 -1.7329
  570EMI    H1"10826   4.142   0.530   5.795 -0.6023 -0.7160 -0.9353
  570EMI    C2"10827   4.302   0.651   5.780  0.2962  0.6360 -0.2329
  570EMI    H2"10828   4.337   0.749   5.808 -0.1903  1.3374  1.0272
  570EMI    H2"10829   4.379   0.579   5.821  1.8243  0.2635 -0.1324
  570EMI    H2"10830   4.308   0.638   5.669 -1.0210  2.0948 -1.3769
  571EMI     N110831   3.258   5.737   2.632  0.3117 -0.5264 -0.2546
  571EMI     C210832   3.340   5.681   2.538  0.5568 -0.1262  0.2033
  571EMI     N310833   3.259   5.610   2.452  0.0996  0.2170 -0.0249
  571EMI     C410834   3.135   5.616   2.507 -0.4455  0.0044 -0.3288
  571EMI     C510835   3.134   5.689   2.619  1.0370 -0.2401 -1.1991
  571EMI     H210836   3.446   5.707   2.527 -0.7073 -1.4729 -0.0336
  571EMI     H410837   3.045   5.565   2.479  0.6577 -1.8921 -4.7315
  571EMI     H510838   3.044   5.704   2.683  1.7247 -2.6183 -2.4518
  571EMI    C1'10839   3.278   5.530   2.329  0.3672  0.4078 -0.5645
  571EMI    H1'10840   3.280   5.594   2.246 -0.5725 -0.6887  0.2035
  571EMI    H1'10841   3.373   5.471   2.337 -0.8877 -0.1868 -0.6082
  571EMI    H1'10842   3.193   5.459   2.319 -0.9162  0.1353  0.5894
  571EMI    C1"10843   3.298   5.823   2.746 -0.0594  0.0810  0.5481
  571EMI    H1"10844   3.370   5.768   2.809  1.6167 -0.1980  2.1714
  571EMI    H1"10845   3.214   5.851   2.808 -1.5841 -1.8279 -2.4513
  571EMI    C2"10846   3.364   5.956   2.703  0.0019 -0.6752 -0.4536
  571EMI    H2"10847   3.408   5.935   2.609  3.6621 -1.5252 -1.5268
  571EMI    H2"10848   3.281   6.026   2.676 -0.7533  0.8382 -0.3893
  571EMI    H2"10849   3.426   5.992   2.781 -1.7589 -0.0503 -0.4071
  572EMI     N110850   4.978   2.699   4.261 -0.0217  0.3624  0.4114
  572EMI     C210851   4.994   2.837   4.265  0.1530  0.1799  0.3946
  572EMI     N310852   5.038   2.864   4.392  0.4598 -0.0834 -0.0891
  572EMI     C410853   5.040   2.748   4.465  0.1704 -0.0061  0.4825
  572EMI     C510854   5.009   2.644   4.382 -0.2965  0.6140  0.1334
  572EMI     H210855   4.981   2.904   4.181  1.5345  1.5446 -1.7386
  572EMI     H410856   5.067   2.739   4.572  0.5003  0.6021 -1.4565
  572EMI     H510857   5.016   2.539   4.405  2.8457  1.3859  1.4392
  572EMI    C1'10858   5.082   2.991   4.451  0.6289  0.1587  0.3400
  572EMI    H1'10859   5.049   3.068   4.387 -0.3384 -1.1566 -0.6052
  572EMI    H1'10860   5.038   2.994   4.549  0.5799  1.3979  3.3473
  572EMI    H1'10861   5.182   2.989   4.468 -1.5048  3.3323 -0.4905
  572EMI    C1"10862   4.937   2.612   4.147 -0.1733 -0.3673 -0.0202
  572EMI    H1"10863   5.005   2.528   4.131 -2.3966 -0.8554  1.4774
  572EMI    H1"10864   4.937   2.677   4.059  0.8785 -1.7168  0.7427
  572EMI    C2"10865   4.787   2.558   4.166 -0.9585 -0.0553 -0.0511
  572EMI    H2"10866   4.716   2.642   4.201 -2.2130 -1.7799  0.1810
  572EMI    H2"10867   4.755   2.511   4.072  1.6321  0.4004  0.7371
  572EMI    H2"10868   4.782   2.478   4.246 -2.5113 -2.3394 -1.1068
  573EMI     N110869   1.441   5.741   0.277 -0.6159 -0.2324 -0.0177
  573EMI     C210870   1.357   5.790   0.371  0.7630  0.2295  0.1272
  573EMI     N310871   1.423   5.878   0.447  0.4027  0.3672  0.4879
  573EMI     C410872   1.552   5.871   0.402  0.2061  0.5100  0.4566
  573EMI     C510873   1.567   5.790   0.298 -0.5849 -0.0215  0.0701
  573EMI     H210874   1.248   5.780   0.369  2.2124 -0.0224 -1.3093
  573EMI     H410875   1.635   5.926   0.446 -1.3147 -2.0375 -0.8666
  573EMI     H510876   1.654   5.773   0.227 -1.4102 -2.5571  3.5047
  573EMI    C1'10877   1.363   5.970   0.549 -0.5742 -0.4197  0.0816
  573EMI    H1'10878   1.322   6.064   0.500  0.7478 -0.0110  0.3710
  573EMI    H1'10879   1.300   5.910   0.608  2.6700 -0.1238 -1.5970
  573EMI    H1'10880   1.448   5.997   0.620  0.7623  0.2566  3.4891
  573EMI    C1"10881   1.416   5.638   0.172  0.3803  0.2284  0.1296
  573EMI    H1"10882   1.503   5.623   0.112 -2.8259  1.2461  1.6700
  573EMI    H1"10883   1.338   5.663   0.104 -0.1443 -0.7232 -0.3048
  573EMI    C2"10884   1.372   5.505   0.244 -0.5645  0.2527  0.0545
  573EMI    H2"10885   1.357   5.435   0.166  0.9848  0.8342  2.6166
  573EMI    H2"10886   1.453   5.471   0.316  1.3616  1.6238  0.4047
  573EMI    H2"10887   1.279   5.529   0.302  2.1281 -0.0267 -2.1062
  574EMI     N110888   3.283   1.834   5.180  0.3191 -0.0577 -0.1778
  574EMI     C210889   3.415   1.861   5.184 -0.0124  0.2276 -0.5323
  574EMI     N310890   3.460   1.849   5.311 -0.3325 -0.2812  0.2312
  574EMI     C410891   3.356   1.818   5.389 -0.6362  0.3465 -0.0354
  574EMI     C510892   3.245   1.811   5.313  0.0029  1.0562 -0.4490
  574EMI     H210893   3.477   1.864   5.094  0.3815  1.6905  2.9041
  574EMI     H410894   3.362   1.808   5.492 -0.4734 -1.4876  0.4779
  574EMI     H510895   3.149   1.795   5.351  0.8299  0.0373 -0.8017
  574EMI    C1'10896   3.595   1.852   5.362  0.1844  0.2547 -0.4540
  574EMI    H1'10897   3.663   1.881   5.290  3.0595  0.1957  0.2899
  574EMI    H1'10898   3.596   1.931   5.436  3.5170 -0.3096 -0.0783
  574EMI    H1'10899   3.618   1.753   5.415  1.3527 -0.2925 -0.4915
  574EMI    C1"10900   3.190   1.821   5.070  0.1373 -0.3506 -0.1702
  574EMI    H1"10901   3.227   1.871   4.976  0.6011  1.8998  1.5074
  574EMI    H1"10902   3.101   1.866   5.098  0.7658 -1.1916  0.0004
  574EMI    C2"10903   3.148   1.675   5.052  0.6814  0.4918  0.1323
  574EMI    H2"10904   3.081   1.651   5.135 -0.8310 -3.4671 -0.1569
  574EMI    H2"10905   3.096   1.662   4.953  1.2209  2.8029  0.5776
  574EMI    H2"10906   3.242   1.624   5.068 -2.0162 -0.5656  1.0457
  575EMI     N110907   3.473   3.606   5.769  0.8063  0.3018  0.8451
  575EMI     C210908   3.346   3.633   5.796  0.5731 -0.0500  0.4833
  575EMI     N310909   3.330   3.771   5.787 -0.3524  0.5745 -0.5337
  575EMI     C410910   3.448   3.823   5.750 -0.3868 -0.0740 -0.0442
  575EMI     C510911   3.537   3.723   5.736  0.2694  0.6627 -0.0224
  575EMI     H210912   3.266   3.561   5.814  2.6889 -0.7460 -0.4253
  575EMI     H410913   3.456   3.933   5.730 -0.1775 -0.5847  1.5232
  575EMI     H510914   3.637   3.736   5.694 -1.5358  1.2180 -2.5517
  575EMI    C1'10915   3.217   3.862   5.810 -0.3885 -0.1056  0.6328
  575EMI    H1'10916   3.123   3.808   5.788 -3.0761 -3.0313  2.0429
  575EMI    H1'10917   3.211   3.891   5.918  0.3305 -0.5398  3.1910
  575EMI    H1'10918   3.224   3.951   5.745  0.4592  0.7747 -1.0438
  575EMI    C1"10919   3.530   3.474   5.742 -0.5074 -0.0996  0.0734
  575EMI    H1"10920   3.498   3.397   5.815  1.6942 -2.7798  0.1057
  575EMI    H1"10921   3.640   3.477   5.726  3.0026  1.3294 -0.2540
  575EMI    C2"10922   3.481   3.427   5.602 -0.3460 -0.1915 -0.2154
  575EMI    H2"10923   3.378   3.424   5.600  1.3044  0.9915  1.5598
  575EMI    H2"10924   3.516   3.492   5.528 -1.2470  3.5303 -0.7836
  575EMI    H2"10925   3.515   3.325   5.578 -1.3023 -0.9614  1.5326
  576EMI     N110926   2.922   2.466   5.387  0.5668 -0.0917 -0.0837
  576EMI     C210927   2.890   2.594   5.352 -0.0568  0.6473 -0.2592
  576EMI     N310928   2.800   2.596   5.252 -0.2182  0.0881  0.5220
  576EMI     C410929   2.768   2.460   5.232  0.0004 -0.3321  0.0834
  576EMI     C510930   2.847   2.384   5.312 -0.5209  0.2392 -0.7253
  576EMI     H210931   2.939   2.674   5.397 -1.3992 -0.8545 -0.5739
  576EMI     H410932   2.722   2.425   5.140  0.1959  2.2269 -2.1316
  576EMI     H510933   2.855   2.285   5.309 -3.1810  1.0877 -0.2471
  576EMI    C1'10934   2.754   2.703   5.171  0.0199  0.1802 -0.1702
  576EMI    H1'10935   2.767   2.697   5.064 -1.8468  1.8853  2.6156
  576EMI    H1'10936   2.647   2.715   5.177  1.0205  2.7833 -1.8676
  576EMI    H1'10937   2.797   2.803   5.210  1.4763 -0.2863  0.2001
  576EMI    C1"10938   3.007   2.410   5.495 -0.7607  0.6387  0.3648
  576EMI    H1"10939   2.979   2.304   5.501 -1.0423  1.6157  0.3293
  576EMI    H1"10940   2.991   2.462   5.587  0.2795 -3.1001 -0.0124
  576EMI    C2"10941   3.159   2.423   5.476 -0.9416  0.2304 -0.6424
  576EMI    H2"10942   3.202   2.372   5.385 -0.1060  4.3104  1.2307
  576EMI    H2"10943   3.179   2.526   5.468 -0.6499 -1.6285  0.4040
  576EMI    H2"10944   3.206   2.382   5.569  1.1649 -1.6444  0.0533
  577EMI     N110945   4.753   5.231   4.394 -0.8806  0.2897 -0.2485
  577EMI     C210946   4.856   5.154   4.367  0.1242  0.2222 -0.4257
  577EMI     N310947   4.820   5.025   4.367 -0.0533  0.3310 -0.2287
  577EMI     C410948   4.683   5.014   4.399 -0.2264  0.1061  0.1112
  577EMI     C510949   4.650   5.141   4.423  0.7136 -0.6440  0.3995
  577EMI     H210950   4.960   5.182   4.343 -0.9367 -1.3720 -0.3874
  577EMI     H410951   4.616   4.935   4.412  3.8812  1.7396  0.8374
  577EMI     H510952   4.555   5.178   4.455  4.0020 -1.7331 -0.3288
  577EMI    C1'10953   4.902   4.904   4.358 -0.9938 -0.5553 -0.1596
  577EMI    H1'10954   4.899   4.871   4.254 -0.4729 -0.1152  0.2771
  577EMI    H1'10955   5.005   4.933   4.389  1.2209  0.0953 -1.1039
  577EMI    H1'10956   4.872   4.827   4.423  1.3053 -0.0069 -1.1357
  577EMI    C1"10957   4.744   5.379   4.417 -0.1041  0.1189  0.3684
  577EMI    H1"10958   4.818   5.418   4.486  2.9926  1.0075 -1.5389
  577EMI    H1"10959   4.651   5.386   4.472  2.3114  1.8535 -0.1423
  577EMI    C2"10960   4.756   5.470   4.296  0.0978  0.2037 -1.2064
  577EMI    H2"10961   4.760   5.576   4.327  0.5611 -1.4883 -0.4271
  577EMI    H2"10962   4.842   5.456   4.239 -1.9285  2.7356 -2.3846
  577EMI    H2"10963   4.667   5.472   4.241  2.1269  2.8638 -1.5795
  578EMI     N110964   6.300   6.204   5.312 -0.2724  0.2575  0.2345
  578EMI     C210965   6.303   6.139   5.197 -0.5948  0.3350  0.5246
  578EMI     N310966   6.389   6.036   5.219  0.4583  0.5009  0.5286
  578EMI     C410967   6.450   6.046   5.339 -0.7757 -0.8840  0.5351
  578EMI     C510968   6.394   6.154   5.400 -0.1432 -0.0417 -0.1198
  578EMI     H210969   6.249   6.161   5.104  2.6611  0.8474  0.3040
  578EMI     H410970   6.523   5.979   5.383 -0.8134 -0.4806 -0.4427
  578EMI     H510971   6.426   6.183   5.504  1.0215 -0.6024 -0.6715
  578EMI    C1'10972   6.403   5.918   5.136  0.9045 -0.2070 -0.5726
  578EMI    H1'10973   6.502   5.879   5.141 -3.4243 -0.8677  2.5137
  578EMI    H1'10974   6.333   5.852   5.178  1.8645  1.7750 -0.8225
  578EMI    H1'10975   6.370   5.938   5.030 -0.5822  1.1875 -1.3063
  578EMI    C1"10976   6.203   6.308   5.353  0.0588 -0.3038  0.8478
  578EMI    H1"10977   6.154   6.282   5.451  1.1027  2.2050  0.1207
  578EMI    H1"10978   6.127   6.310   5.278  1.0465 -0.4215  2.1369
  578EMI    C2"10979   6.270   6.441   5.366 -0.3427 -0.2503  0.0981
  578EMI    H2"10980   6.198   6.516   5.323 -0.5011  1.0067  0.7357
  578EMI    H2"10981   6.300   6.459   5.475  2.8797  0.0033  1.4443
  578EMI    H2"10982   6.357   6.447   5.303 -2.4093 -2.4031  0.5781
  579EMI     N110983   2.209   4.002   1.630 -0.1408  0.1756  0.2400
  579EMI     C210984   2.103   3.919   1.603 -0.5161  0.1451 -0.4776
  579EMI     N310985   1.991   3.978   1.637 -0.6455 -0.4776  0.2423
  579EMI     C410986   2.013   4.097   1.693  0.2982  0.4444  0.2032
  579EMI     C510987   2.148   4.111   1.693  0.0618  0.1131  0.0476
  579EMI     H210988   2.113   3.822   1.555 -1.5818 -0.0578 -0.8566
  579EMI     H410989   1.939   4.169   1.724 -0.5084  3.3674 -1.3857
  579EMI     H510990   2.195   4.206   1.713 -0.7931 -0.4363  1.1020
  579EMI    C1'10991   1.855   3.927   1.631 -0.5920  0.3307  0.2952
  579EMI    H1'10992   1.787   4.004   1.652 -0.9097  0.7193 -2.1830
  579EMI    H1'10993   1.822   3.901   1.535  1.2969  1.6326 -0.2740
  579EMI    H1'10994   1.843   3.843   1.701 -1.2074  1.0448  1.6491
  579EMI    C1"10995   2.350   4.002   1.591 -0.2673  0.3202 -0.5501
  579EMI    H1"10996   2.387   3.900   1.621  0.0172 -1.7282 -1.0207
  579EMI    H1"10997   2.401   4.087   1.628 -2.9472 -0.1229  1.2576
  579EMI    C2"10998   2.365   3.997   1.437 -0.2170  0.0112  0.3729
  579EMI    H2"10999   2.324   3.905   1.401  0.0563  2.5845  0.2309
  579EMI    H2"11000   2.314   4.078   1.387  0.0589 -2.0529  0.3839
  579EMI    H2"11001   2.474   4.001   1.423 -0.1322 -0.1539  0.3187
  580EMI     N111002   0.381   6.087   5.828 -0.6371  1.0435 -0.1458
  580EMI     C211003   0.452   6.142   5.727 -0.0725 -0.1905  0.3052
  580EMI     N311004   0.552   6.062   5.697 -0.1542 -0.2413 -0.2676
  580EMI     C411005   0.535   5.945   5.767  0.0564 -0.1601 -0.6004
  580EMI     C511006   0.433   5.953   5.851  0.4269 -0.6189  0.3127
  580EMI     H211007   0.435   6.241   5.685  1.1858 -0.1898  0.5231
  580EMI     H411008   0.601   5.858   5.753  2.1562  1.2240 -3.2721
  580EMI     H511009   0.399   5.873   5.917 -1.0937  0.6848 -0.6978
  580EMI    C1'11010   0.663   6.071   5.606  0.4789 -0.1697 -0.1151
  580EMI    H1'11011   0.734   6.147   5.648  1.5553 -1.4942 -0.9130
  580EMI    H1'11012   0.706   5.970   5.598 -0.8035  0.6188  0.5617
  580EMI    H1'11013   0.627   6.109   5.509 -1.1528 -0.3317  2.7030
  580EMI    C1"11014   0.265   6.139   5.903  0.0715 -0.7688  0.2675
  580EMI    H1"11015   0.286   6.245   5.919  0.8732 -0.4925 -1.3200
  580EMI    H1"11016   0.252   6.077   5.997 -1.9794 -0.9773  1.3987
  580EMI    C2"11017   0.143   6.128   5.803 -0.4264 -0.3488  0.3081
  580EMI    H2"11018   0.054   6.173   5.844  3.6277 -3.6549 -0.0149
  580EMI    H2"11019   0.166   6.176   5.705 -2.8935 -0.2934 -0.6320
  580EMI    H2"11020   0.129   6.021   5.785  0.5953 -0.5145 -2.1254
  581EMI     N111021   5.855   3.075   2.572 -0.2895 -0.3677 -0.3029
  581EMI     C211022   5.926   2.991   2.497 -0.0819  0.0095  0.7388
  581EMI     N311023   6.017   2.925   2.574  0.3206  0.5649 -0.6280
  581EMI     C411024   6.008   2.985   2.696 -0.1363  0.2136  0.3268
  581EMI     C511025   5.907   3.076   2.702  0.4653  0.5557  0.3853
  581EMI     H211026   5.921   2.978   2.389  0.1359 -0.2356 -0.1027
  581EMI     H411027   6.065   2.954   2.780 -2.3811  0.9017 -0.9906
  581EMI     H511028   5.887   3.131   2.793  0.7831  3.1534  2.4122
  581EMI    C1'11029   6.120   2.825   2.544  0.0446  0.5217 -0.3743
  581EMI    H1'11030   6.147   2.831   2.443  0.5331  2.3135 -0.2229
  581EMI    H1'11031   6.205   2.846   2.604  1.6501  0.7166  1.3843
  581EMI    H1'11032   6.077   2.728   2.570 -0.0404 -3.5164  0.7427
  581EMI    C1"11033   5.749   3.179   2.535  0.5909  0.2293 -0.0759
  581EMI    H1"11034   5.780   3.223   2.443  3.0795 -1.5470  0.1916
  581EMI    H1"11035   5.749   3.253   2.618  2.2256 -2.6132 -2.2371
  581EMI    C2"11036   5.614   3.114   2.522 -0.3957 -0.2527 -0.2249
  581EMI    H2"11037   5.624   3.019   2.501 -0.1297  1.5512 -2.1867
  581EMI    H2"11038   5.560   3.112   2.618  0.5451 -0.5812 -0.3241
  581EMI    H2"11039   5.544   3.152   2.444 -1.3799  1.1124 -1.8912
  582EMI     N111040   4.466   0.394   5.512  0.5443 -0.0690 -0.5056
  582EMI     C211041   4.586   0.396   5.575  0.6267  0.3720  0.2681
  582EMI     N311042   4.584   0.329   5.695 -0.4551  0.1835  0.2106
  582EMI     C411043   4.454   0.285   5.713  0.4184 -0.0339 -0.4284
  582EMI     C511044   4.383   0.322   5.603  0.1286 -0.2473  0.9627
  582EMI     H211045   4.676   0.441   5.531  1.5460 -1.6674  0.6615
  582EMI     H411046   4.419   0.228   5.794  2.5187  0.7363 -1.2311
  582EMI     H511047   4.281   0.312   5.579  0.6725  0.2473 -0.9067
  582EMI    C1'11048   4.697   0.307   5.783 -0.8844  0.3388 -0.4145
  582EMI    H1'11049   4.774   0.243   5.733 -0.4201  2.5794 -1.0445
  582EMI    H1'11050   4.738   0.402   5.812  0.6210 -0.9576 -1.1558
  582EMI    H1'11051   4.670   0.256   5.881 -0.7965  0.1264  1.1286
  582EMI    C1"11052   4.420   0.460   5.387 -0.4419 -0.3227 -0.2532
  582EMI    H1"11053   4.507   0.512   5.337  0.6814 -2.6877 -3.2107
  582EMI    H1"11054   4.335   0.530   5.406  0.4026 -0.1363  0.9703
  582EMI    C2"11055   4.371   0.362   5.277 -0.1438 -0.2233 -0.0425
  582EMI    H2"11056   4.450   0.299   5.242 -0.0129 -0.6561  1.0721
  582EMI    H2"11057   4.288   0.301   5.318 -2.6719 -1.1793  1.2449
  582EMI    H2"11058   4.333   0.419   5.199  1.3765 -3.0336  1.2113
  583EMI     N111059   2.595   1.033   6.001 -0.3569  0.4379  0.6868
  583EMI     C211060   2.643   1.158   6.028 -0.5852 -0.6005 -0.8314
  583EMI     N311061   2.775   1.152   6.045 -0.7842  0.5196  0.7349
  583EMI     C411062   2.817   1.024   6.020 -0.3398  0.1669 -0.6674
  583EMI     C511063   2.704   0.950   5.991  0.3585  0.4484 -0.7125
  583EMI     H211064   2.590   1.253   6.028  1.3895 -0.3519 -1.1706
  583EMI     H411065   2.919   0.983   6.017  2.1754  2.6651  0.8624
  583EMI     H511066   2.694   0.853   5.967 -1.0095  2.2048  1.4820
  583EMI    C1'11067   2.862   1.261   6.094  0.7543 -0.1750  0.3809
  583EMI    H1'11068   2.808   1.355   6.091 -0.7601 -0.6877 -0.3446
  583EMI    H1'11069   2.913   1.229   6.188  1.3743 -0.1674 -1.9499
  583EMI    H1'11070   2.942   1.263   6.023 -1.2721 -1.7250  0.3301
  583EMI    C1"11071   2.466   0.984   5.943 -0.3820 -0.3552 -0.9713
  583EMI    H1"11072   2.452   0.876   5.967  2.8323 -1.1526  2.3633
  583EMI    H1"11073   2.464   0.999   5.834 -1.3390  0.8429 -1.1219
  583EMI    C2"11074   2.352   1.063   6.014 -0.1135  0.2471  0.2207
  583EMI    H2"11075   2.254   1.030   5.972 -1.1211 -0.6515 -1.4126
  583EMI    H2"11076   2.369   1.048   6.121 -0.4413 -2.5049  0.2495
  583EMI    H2"11077   2.353   1.168   5.990  0.0342 -3.1242  1.1198
  584EMI     N111078   3.588   4.671   2.892  0.0963 -0.4231  0.1723
  584EMI     C211079   3.551   4.631   2.772 -0.4713 -0.0650 -0.4727
  584EMI     N311080   3.640   4.544   2.721  0.2430  0.0272  0.3955
  584EMI     C411081   3.739   4.531   2.815 -0.5545 -0.2998  0.7982
  584EMI     C511082   3.706   4.608   2.922  0.0307 -0.4865  0.1755
  584EMI     H211083   3.457   4.662   2.734 -1.4618  4.2639 -1.0558
  584EMI     H411084   3.821   4.466   2.820 -1.1148 -1.6307  0.0286
  584EMI     H511085   3.760   4.618   3.013 -0.3689  0.2968 -0.0207
  584EMI    C1'11086   3.644   4.475   2.596 -0.0999  0.1165  0.3145
  584EMI    H1'11087   3.615   4.547   2.518  1.4409 -0.5830  1.7583
  584EMI    H1'11088   3.747   4.448   2.576  2.5862  0.3201  1.4066
  584EMI    H1'11089   3.584   4.384   2.605 -0.9394  0.6618 -1.0126
  584EMI    C1"11090   3.539   4.779   2.982 -0.3947  0.3771 -0.3446
  584EMI    H1"11091   3.482   4.850   2.929  1.1638 -2.8449  2.2485
  584EMI    H1"11092   3.625   4.830   3.024  1.4669  1.2937 -0.7096
  584EMI    C2"11093   3.441   4.724   3.088  0.1416 -0.6440 -0.0038
  584EMI    H2"11094   3.403   4.805   3.147  2.0444  0.6717  1.8996
  584EMI    H2"11095   3.359   4.667   3.054  0.1629  0.4016 -1.7798
  584EMI    H2"11096   3.481   4.662   3.156  0.3216 -0.2876 -0.7262
  585EMI     N111097   5.104   4.239   1.922 -0.1143 -0.5382 -0.1610
  585EMI     C211098   5.196   4.335   1.967 -0.0237  0.0416 -0.5002
  585EMI     N311099   5.277   4.372   1.872 -0.2326  0.3438 -0.0850
  585EMI     C411100   5.251   4.289   1.765  0.0427 -0.3985 -0.3496
  585EMI     C511101   5.143   4.220   1.795  0.7648  0.1577 -0.6926
  585EMI     H211102   5.186   4.380   2.069  0.8867  1.7670  1.6593
  585EMI     H411103   5.305   4.287   1.671  1.2298  0.3138 -0.9437
  585EMI     H511104   5.090   4.149   1.727 -0.9122  0.6001  0.0817
  585EMI    C1'11105   5.380   4.472   1.862 -0.3524  0.7148 -0.8678
  585EMI    H1'11106   5.407   4.495   1.963 -0.5066 -1.4211  2.2612
  585EMI    H1'11107   5.477   4.434   1.831 -2.3367 -2.8014 -0.6730
  585EMI    H1'11108   5.343   4.548   1.796 -0.0163 -0.5569  0.0618
  585EMI    C1"11109   4.983   4.178   1.974  0.0327 -0.1416  0.6454
  585EMI    H1"11110   4.952   4.095   1.921 -1.3345  1.4256 -2.6227
  585EMI    H1"11111   4.899   4.248   1.959  3.7321 -0.0118  3.1234
  585EMI    C2"11112   5.007   4.132   2.120  0.4920 -0.0915  0.3778
  585EMI    H2"11113   5.094   4.072   2.123 -2.3378  0.1733  2.1866
  585EMI    H2"11114   5.027   4.223   2.181 -1.5867  0.6112 -1.1345
  585EMI    H2"11115   4.922   4.073   2.154  0.4054 -0.5105  0.0659
  586EMI     N111116   3.938   1.714   5.140 -0.2930  0.5993 -0.5632
  586EMI     C211117   4.004   1.810   5.211 -0.5195 -0.3405 -0.1586
  586EMI     N311118   4.002   1.931   5.139 -0.7946 -0.5072  0.1027
  586EMI     C411119   3.933   1.905   5.022 -0.0738  0.1406  0.1570
  586EMI     C511120   3.889   1.776   5.025  0.1467  0.3490 -0.2492
  586EMI     H211121   4.064   1.788   5.296 -2.3966 -3.3726 -3.1401
  586EMI     H411122   3.918   1.988   4.951  1.1989 -0.9107 -2.3099
  586EMI     H511123   3.825   1.733   4.943 -0.0397  0.9116  0.2946
  586EMI    C1'11124   4.050   2.067   5.179  0.5130  0.2915 -0.1509
  586EMI    H1'11125   4.127   2.060   5.252  0.3959  1.1889 -1.5712
  586EMI    H1'11126   4.081   2.122   5.094 -1.5198  0.2648 -0.3571
  586EMI    H1'11127   3.962   2.115   5.220 -1.1099  0.5767  0.3256
  586EMI    C1"11128   3.907   1.569   5.167  0.4558  0.0120 -0.0439
  586EMI    H1"11129   4.001   1.517   5.190  0.7657 -2.6079  0.3719
  586EMI    H1"11130   3.866   1.535   5.070  1.5897  0.1471  1.2072
  586EMI    C2"11131   3.806   1.566   5.282  0.1663  0.0695 -0.3465
  586EMI    H2"11132   3.791   1.466   5.298 -0.6792 -0.6644 -2.2739
  586EMI    H2"11133   3.846   1.608   5.377 -1.1559  1.0588 -1.0934
  586EMI    H2"11134   3.707   1.621   5.258 -1.5868 -0.2614  0.3631
  587EMI     N111135   4.379   1.172   5.766  0.0677 -0.6313  0.5484
  587EMI     C211136   4.367   1.266   5.669  0.3693  0.3227 -0.1645
  587EMI     N311137   4.391   1.219   5.544  0.1820 -0.1234 -0.2815
  587EMI     C411138   4.420   1.083   5.564  0.0209 -0.4825 -0.6836
  587EMI     C511139   4.416   1.059   5.694 -0.0102 -0.8132  0.6575
  587EMI     H211140   4.328   1.367   5.686  0.8033 -2.2829 -0.9838
  587EMI     H411141   4.430   1.023   5.474 -1.7469  1.2470 -3.0243
  587EMI     H511142   4.437   0.961   5.737 -0.4133 -1.3117  1.4372
  587EMI    C1'11143   4.365   1.279   5.418  0.6063 -0.3490 -0.5229
  587EMI    H1'11144   4.407   1.378   5.412 -1.3301 -0.8805  0.5888
  587EMI    H1'11145   4.417   1.217   5.340 -0.7069 -0.5672  2.5735
  587EMI    H1'11146   4.255   1.284   5.395 -1.2223 -2.2239 -2.2731
  587EMI    C1"11147   4.370   1.178   5.915 -0.5293  0.4300  0.2623
  587EMI    H1"11148   4.443   1.240   5.968 -3.1255 -4.4252 -1.2162
  587EMI    H1"11149   4.371   1.068   5.940  0.1665 -1.4491 -1.9418
  587EMI    C2"11150   4.234   1.233   5.949  0.6372  0.6128  1.2666
  587EMI    H2"11151   4.170   1.212   5.860 -0.7806 -1.9414  0.3273
  587EMI    H2"11152   4.192   1.187   6.035 -2.0520  4.1908 -0.2601
  587EMI    H2"11153   4.232   1.333   5.961  1.7131  1.2049  0.2790
  588EMI     N111154   2.707   3.479   2.337  0.7023 -0.0012  0.0315
  588EMI     C211155   2.796   3.382   2.355  0.2625  0.6412 -0.1646
  588EMI     N311156   2.848   3.344   2.235 -0.0137  0.3556  0.2709
  588EMI     C411157   2.781   3.420   2.138 -0.2681  0.2933  0.0484
  588EMI     C511158   2.699   3.506   2.201 -0.3396  0.5493 -0.0357
  588EMI     H211159   2.815   3.338   2.451 -4.2151 -3.1346 -1.6489
  588EMI     H411160   2.788   3.403   2.029 -0.6389  0.4683 -2.4360
  588EMI     H511161   2.628   3.563   2.152  1.0185 -3.9686  0.4208
  588EMI    C1'11162   2.947   3.238   2.205  0.6258 -0.1956 -0.2254
  588EMI    H1'11163   2.903   3.138   2.190  0.9407 -1.6993  1.9956
  588EMI    H1'11164   3.007   3.269   2.120  0.1210 -0.8609 -0.3005
  588EMI    H1'11165   3.018   3.227   2.283  2.3648  1.1796 -3.5462
  588EMI    C1"11166   2.633   3.553   2.440  0.3616 -0.5123  0.4421
  588EMI    H1"11167   2.573   3.639   2.405 -3.2139 -0.4500  0.3530
  588EMI    H1"11168   2.700   3.609   2.500  0.6576 -3.4017  1.5636
  588EMI    C2"11169   2.544   3.469   2.527  0.4757  0.2898 -0.2111
  588EMI    H2"11170   2.502   3.530   2.609  1.9707  1.2391  1.0593
  588EMI    H2"11171   2.469   3.418   2.464 -2.4728  1.1093  0.8134
  588EMI    H2"11172   2.609   3.396   2.574 -1.4664 -1.8244 -2.0090
  589EMI     N111173   6.104   2.842   6.033 -0.2180  0.1118 -0.5442
  589EMI     C211174   6.174   2.748   5.965  0.0017  0.2855  0.1888
  589EMI     N311175   6.301   2.759   6.004  0.4554 -1.0652  0.3114
  589EMI     C411176   6.317   2.868   6.089 -0.0683  0.1915  0.6732
  589EMI     C511177   6.194   2.917   6.104 -0.4056  0.4065 -0.0271
  589EMI     H211178   6.143   2.668   5.905  1.1991 -1.1633 -0.2214
  589EMI     H411179   6.416   2.891   6.143 -2.5655  1.6606  0.7208
  589EMI     H511180   6.175   3.007   6.168  1.9805 -0.8004 -0.1407
  589EMI    C1'11181   6.425   2.687   5.964  0.3272  0.3985 -0.3853
  589EMI    H1'11182   6.421   2.580   6.007 -0.6393  3.5044  1.5515
  589EMI    H1'11183   6.429   2.681   5.853  1.2257 -0.3577  1.5686
  589EMI    H1'11184   6.512   2.738   6.011  0.6838  0.5568  0.9045
  589EMI    C1"11185   5.958   2.867   6.036  0.0310 -0.5168 -0.5476
  589EMI    H1"11186   5.915   2.903   5.944 -4.0856  0.9845 -1.4416
  589EMI    H1"11187   5.937   2.943   6.113  0.4598 -0.8148  1.2406
  589EMI    C2"11188   5.889   2.738   6.082 -1.0258  0.1097 -0.7193
  589EMI    H2"11189   5.915   2.702   6.185 -0.9395  0.1121 -0.5955
  589EMI    H2"11190   5.782   2.760   6.093 -1.1154  2.4184  0.7776
  589EMI    H2"11191   5.904   2.659   6.005 -0.0194  2.6845 -3.1816
  590EMI     N111192   1.820   1.428   2.394 -0.2211 -0.9426 -0.1334
  590EMI     C211193   1.741   1.532   2.351 -0.1978  0.1463  0.2588
  590EMI     N311194   1.627   1.534   2.422  0.4139 -0.4274 -1.4645
  590EMI     C411195   1.634   1.434   2.516 -0.1790 -0.2863 -0.1295
  590EMI     C511196   1.753   1.375   2.506 -0.0149 -0.0644 -0.0898
  590EMI     H211197   1.769   1.609   2.280 -0.1134 -0.8166  0.4647
  590EMI     H411198   1.564   1.425   2.594  1.0493  0.1464  2.9989
  590EMI     H511199   1.784   1.291   2.571  2.0004  0.7022  0.8562
  590EMI    C1'11200   1.510   1.630   2.423 -0.4815 -0.0278  0.0960
  590EMI    H1'11201   1.423   1.578   2.457  0.9658  0.9707 -0.3838
  590EMI    H1'11202   1.509   1.703   2.502 -0.0754  0.5267  1.6637
  590EMI    H1'11203   1.494   1.672   2.318 -1.6880  2.0358  1.7575
  590EMI    C1"11204   1.953   1.384   2.351  0.2187  0.0500  0.5730
  590EMI    H1"11205   2.007   1.329   2.427 -0.1350  3.2657  0.6853
  590EMI    H1"11206   2.020   1.460   2.321 -0.3476  0.6315 -1.0911
  590EMI    C2"11207   1.926   1.297   2.227 -0.5490 -0.2328 -0.2838
  590EMI    H2"11208   2.020   1.249   2.199 -1.7776  0.4023 -3.2295
  590EMI    H2"11209   1.846   1.232   2.223  2.9428  0.9758 -0.5846
  590EMI    H2"11210   1.901   1.368   2.148 -0.9553 -0.0755 -0.5399
  591EMI     N111211   3.170   4.846   1.897  0.2350 -0.7594 -0.6871
  591EMI     C211212   3.306   4.830   1.906  0.2234  0.7764 -0.3990
  591EMI     N311213   3.365   4.940   1.955  0.5939  0.5896 -0.1796
  591EMI     C411214   3.264   5.031   1.978 -0.1235 -0.7588 -0.2160
  591EMI     C511215   3.150   4.971   1.949  0.3978 -0.3862  0.1036
  591EMI     H211216   3.355   4.738   1.882  1.5774  0.9488  1.5046
  591EMI     H411217   3.275   5.128   2.024 -1.0359 -1.4417  1.0216
  591EMI     H511218   3.052   5.015   1.968  2.0516  1.1073  1.5193
  591EMI    C1'11219   3.514   4.966   1.979 -0.4888 -0.1596  0.3701
  591EMI    H1'11220   3.527   4.999   2.084  1.4743 -1.9225 -1.6993
  591EMI    H1'11221   3.580   4.877   1.966 -2.1285  0.0873  1.5025
  591EMI    H1'11222   3.545   5.040   1.911 -2.2723  1.1973  0.7271
  591EMI    C1"11223   3.060   4.750   1.859 -0.1190  0.2274  0.5377
  591EMI    H1"11224   3.081   4.695   1.768  1.2594  0.8370  1.1257
  591EMI    H1"11225   2.966   4.799   1.858 -1.3492  1.6501  3.9446
  591EMI    C2"11226   3.050   4.653   1.974 -0.8919  0.6634 -0.2170
  591EMI    H2"11227   3.150   4.614   1.980 -1.5586 -0.7176  0.4129
  591EMI    H2"11228   3.028   4.707   2.063 -1.8007 -1.8409 -0.6217
  591EMI    H2"11229   2.989   4.564   1.964 -0.9848 -0.8814  1.3827
  592EMI     N111230   6.333   3.658   4.061 -0.2289  0.4544 -0.1638
  592EMI     C211231   6.312   3.735   4.170 -0.2218  0.0974 -0.0918
  592EMI     N311232   6.223   3.677   4.244  0.0562 -0.7194 -0.6971
  592EMI     C411233   6.188   3.556   4.184 -0.3710  0.5144  0.0290
  592EMI     C511234   6.263   3.544   4.072  0.6734  0.5520  0.6669
  592EMI     H211235   6.347   3.838   4.189  0.9483 -0.7303 -0.3523
  592EMI     H411236   6.117   3.480   4.216  0.2098  0.7256 -0.3869
  592EMI     H511237   6.250   3.479   3.990 -1.8727  1.0607  2.2749
  592EMI    C1'11238   6.151   3.728   4.363 -0.3276 -0.3277  0.2480
  592EMI    H1'11239   6.056   3.776   4.331 -0.7579  0.2403 -0.4049
  592EMI    H1'11240   6.122   3.640   4.421 -0.3585 -0.9839 -1.0705
  592EMI    H1'11241   6.219   3.793   4.430  1.1957  3.1216  1.9887
  592EMI    C1"11242   6.411   3.687   3.941  0.6016  0.3845 -0.0231
  592EMI    H1"11243   6.408   3.795   3.930  0.3429 -0.7655 -1.0898
  592EMI    H1"11244   6.365   3.635   3.863  0.3760 -0.5584 -1.5060
  592EMI    C2"11245   6.562   3.638   3.948 -0.2273 -0.8973 -0.7725
  592EMI    H2"11246   6.608   3.659   3.854 -0.9352  2.6391  0.0002
  592EMI    H2"11247   6.618   3.694   4.023 -2.1195  3.4710 -2.4415
  592EMI    H2"11248   6.569   3.532   3.965  0.2469 -0.3939 -0.6474
  593EMI     N111249   5.980   3.639   6.178 -0.7169  0.1107  0.3719
  593EMI     C211250   5.959   3.712   6.072 -0.1769 -0.3894  0.2724
  593EMI     N311251   6.058   3.700   5.980 -0.1089  0.1527  0.1230
  593EMI     C411252   6.145   3.610   6.029 -0.3646  0.3010 -0.5791
  593EMI     C511253   6.100   3.572   6.152  1.1734 -0.1851 -0.7582
  593EMI     H211254   5.886   3.784   6.063 -0.2533  0.9833 -0.2549
  593EMI     H411255   6.239   3.570   5.989  2.1636 -0.4836  2.5152
  593EMI     H511256   6.153   3.518   6.226  1.3775  0.9321  0.2364
  593EMI    C1'11257   6.075   3.759   5.849  0.4118 -0.3678 -0.4953
  593EMI    H1'11258   6.018   3.854   5.848 -0.5379 -2.2581 -2.0719
  593EMI    H1'11259   6.182   3.786   5.838  0.9690  2.3004  1.2801
  593EMI    H1'11260   6.044   3.690   5.772 -0.6981  0.0969  1.3360
  593EMI    C1"11261   5.904   3.616   6.302 -0.1705  0.2447  0.1418
  593EMI    H1"11262   5.840   3.700   6.325 -0.2195  0.1366  0.2979
  593EMI    H1"11263   5.959   3.590   6.395  2.8215  0.6440  0.2278
  593EMI    C2"11264   5.813   3.492   6.273  0.1944  0.1597 -0.3884
  593EMI    H2"11265   5.712   3.519   6.243  1.6215  0.2358 -2.3087
  593EMI    H2"11266   5.853   3.436   6.189  1.2093 -2.7381  2.3970
  593EMI    H2"11267   5.817   3.426   6.366  0.1480 -0.5179 -0.7199
  594EMI     N111268   3.819   2.562   5.459  0.2531  0.1031  0.0789
  594EMI     C211269   3.869   2.489   5.356  0.5420 -0.4080  1.1905
  594EMI     N311270   3.934   2.572   5.270  0.7609  0.3700 -0.0584
  594EMI     C411271   3.911   2.703   5.313  0.3177  0.9709 -0.0033
  594EMI     C511272   3.843   2.697   5.430  0.1061 -0.0169 -0.0752
  594EMI     H211273   3.859   2.383   5.353  1.8073 -1.5797  2.3254
  594EMI     H411274   3.941   2.803   5.272 -0.0820  2.1675 -0.5544
  594EMI     H511275   3.814   2.778   5.497  0.4803 -1.9111  1.0960
  594EMI    C1'11276   3.992   2.535   5.143  0.2876  0.5257  0.3298
  594EMI    H1'11277   3.939   2.586   5.056  1.8393  1.4777  1.2686
  594EMI    H1'11278   4.094   2.564   5.129 -0.4302  4.8373 -0.0187
  594EMI    H1'11279   3.985   2.426   5.135  0.7398 -3.3135  1.9394
  594EMI    C1"11280   3.757   2.519   5.577 -0.2113  0.2200  0.3118
  594EMI    H1"11281   3.707   2.416   5.555 -0.4847 -0.6858 -1.4715
  594EMI    H1"11282   3.674   2.595   5.601  1.1634 -2.0327  0.4121
  594EMI    C2"11283   3.851   2.508   5.694  0.8814 -0.0647 -0.5929
  594EMI    H2"11284   3.908   2.605   5.717  0.5889  0.0854  2.3134
  594EMI    H2"11285   3.801   2.475   5.788 -0.6065 -1.3218  0.5296
  594EMI    H2"11286   3.937   2.443   5.662 -3.4347  0.2763  1.3978
  595EMI     N111287   1.383   6.006   5.957 -0.5476 -0.1533  0.4582
  595EMI     C211288   1.367   5.875   5.979 -0.7608  0.3564  0.5680
  595EMI     N311289   1.271   5.859   6.071 -0.2595  0.0148 -0.3655
  595EMI     C411290   1.227   5.984   6.108  0.4730 -0.0545 -0.5705
  595EMI     C511291   1.300   6.074   6.041 -0.1123  0.0230  0.6232
  595EMI     H211292   1.411   5.788   5.933  0.0774 -2.0237 -0.9054
  595EMI     H411293   1.141   6.005   6.177 -2.6335  0.5651  0.8977
  595EMI     H511294   1.284   6.177   6.048 -2.1927 -1.5790 -0.6950
  595EMI    C1'11295   1.209   5.734   6.119  0.1588 -0.1805 -0.2527
  595EMI    H1'11296   1.240   5.658   6.049 -0.4155 -1.9474  0.3240
  595EMI    H1'11297   1.246   5.711   6.220  0.2025 -1.7254  3.0048
  595EMI    H1'11298   1.106   5.746   6.127  2.5305 -0.0980 -0.1726
  595EMI    C1"11299   1.486   6.068   5.868  0.2731 -0.2580 -0.2525
  595EMI    H1"11300   1.558   5.999   5.832 -4.3610  0.2048 -1.3528
  595EMI    H1"11301   1.542   6.149   5.921 -1.8874  1.2001  2.7499
  595EMI    C2"11302   1.406   6.120   5.745  0.3677 -0.0290 -0.0383
  595EMI    H2"11303   1.352   6.027   5.718 -0.0730  1.8133  1.6372
  595EMI    H2"11304   1.353   6.212   5.785 -0.7521 -0.9873  0.5223
  595EMI    H2"11305   1.462   6.142   5.654  1.5174  1.3932 -0.9375
  596EMI     N111306   1.328   3.550   1.236 -0.4827 -0.3827  0.6270
  596EMI     C211307   1.281   3.460   1.322  0.2814 -0.4550 -0.5229
  596EMI     N311308   1.145   3.454   1.310 -0.5361  0.9324  0.3685
  596EMI     C411309   1.110   3.552   1.218  0.0040 -0.3264  0.2839
  596EMI     C511310   1.226   3.600   1.167  0.2686  0.5107 -0.1984
  596EMI     H211311   1.339   3.389   1.378 -2.6217 -2.7313 -2.4011
  596EMI     H411312   1.015   3.559   1.171 -0.2869  0.0261  0.5138
  596EMI     H511313   1.240   3.677   1.083  3.1232 -1.2986 -1.0815
  596EMI    C1'11314   1.041   3.372   1.372 -0.1998 -0.2757  0.3136
  596EMI    H1'11315   1.080   3.328   1.455 -0.0080  1.4645 -1.5429
  596EMI    H1'11316   0.960   3.445   1.405 -2.5566  1.1265  0.1887
  596EMI    H1'11317   1.000   3.299   1.311  0.0405  0.6926  3.7060
  596EMI    C1"11318   1.463   3.592   1.193  0.4969 -0.4504 -0.0940
  596EMI    H1"11319   1.481   3.698   1.204  0.1574  1.0238 -0.4953
  596EMI    H1"11320   1.473   3.569   1.089 -0.4475  1.6039 -0.8336
  596EMI    C2"11321   1.577   3.526   1.269 -0.2636 -0.6595  0.1560
  596EMI    H2"11322   1.573   3.416   1.264 -1.7476 -3.7500  1.6253
  596EMI    H2"11323   1.670   3.566   1.237 -0.3335  1.9535 -0.3481
  596EMI    H2"11324   1.569   3.555   1.372 -1.1470 -1.6488  1.0787
  597EMI     N111325   6.232   4.089   2.734  0.6274 -0.3413  0.1001
  597EMI     C211326   6.131   4.055   2.818  0.0646  0.3104 -0.8360
  597EMI     N311327   6.187   3.991   2.926  0.2595  0.4454 -0.8172
  597EMI     C411328   6.322   3.993   2.910  0.1514  0.6728 -0.1604
  597EMI     C511329   6.353   4.039   2.789  0.0508 -0.1085 -0.2401
  597EMI     H211330   6.021   4.078   2.809  0.6452  1.2915 -1.2447
  597EMI     H411331   6.399   3.949   2.970 -1.0904 -1.9861  2.4939
  597EMI     H511332   6.455   4.043   2.747 -0.2862 -0.3253  2.1984
  597EMI    C1'11333   6.125   3.960   3.056 -0.6995 -0.0944 -0.4069
  597EMI    H1'11334   6.023   3.947   3.039  0.4355  3.1116  1.3349
  597EMI    H1'11335   6.165   3.864   3.091 -2.9126 -0.7866 -0.0613
  597EMI    H1'11336   6.143   4.040   3.127 -0.8008 -3.5273 -1.6179
  597EMI    C1"11337   6.222   4.179   2.615  0.1312  0.6212 -0.2241
  597EMI    H1"11338   6.317   4.224   2.600 -0.6540  0.7317  1.2207
  597EMI    H1"11339   6.152   4.261   2.631 -0.9196 -0.0097  0.0848
  597EMI    C2"11340   6.168   4.091   2.497 -0.5997 -0.1620 -0.6168
  597EMI    H2"11341   6.151   4.155   2.409  0.9583  0.4813  0.5734
  597EMI    H2"11342   6.241   4.026   2.455 -0.0381  0.9053 -0.0629
  597EMI    H2"11343   6.079   4.041   2.529 -0.0902 -2.2353 -0.5143
  598EMI     N111344   5.543   0.585   6.182  0.5845 -0.3518 -0.0186
  598EMI     C211345   5.431   0.523   6.150 -0.7735 -0.0321 -0.2682
  598EMI     N311346   5.395   0.552   6.023 -0.1036  0.7675 -0.1783
  598EMI     C411347   5.503   0.623   5.964 -0.4368 -1.0707  0.3228
  598EMI     C511348   5.599   0.640   6.063 -0.6542 -0.0798 -0.4542
  598EMI     H211349   5.378   0.466   6.225  0.3398 -1.8714 -0.7469
  598EMI     H411350   5.506   0.653   5.865 -1.0497 -0.5931  3.2509
  598EMI     H511351   5.692   0.692   6.050  0.6849 -1.6970 -4.1585
  598EMI    C1'11352   5.269   0.523   5.941  0.0821  1.1254  0.2787
  598EMI    H1'11353   5.228   0.427   5.969 -0.2168  1.5957 -2.0156
  598EMI    H1'11354   5.193   0.599   5.929 -0.8439  0.2957  0.0960
  598EMI    H1'11355   5.300   0.494   5.839  0.8170 -0.4567  1.0893
  598EMI    C1"11356   5.622   0.587   6.307  1.1972  0.7153 -0.7396
  598EMI    H1"11357   5.723   0.572   6.292 -0.7434  0.2029  1.0798
  598EMI    H1"11358   5.592   0.501   6.365  2.0039  0.0443 -0.2479
  598EMI    C2"11359   5.599   0.712   6.398  0.5015 -0.7644 -0.1043
  598EMI    H2"11360   5.628   0.798   6.348  1.3173 -1.5509 -0.8528
  598EMI    H2"11361   5.489   0.726   6.415  0.1355  1.3799 -2.1097
  598EMI    H2"11362   5.650   0.707   6.494  1.9235  2.9297 -0.1369
  599EMI     N111363   0.992   5.894   1.757 -0.2973 -0.9062 -0.4901
  599EMI     C211364   0.969   6.008   1.686 -0.6927 -0.0484  0.1991
  599EMI     N311365   1.081   6.066   1.650  0.4709  0.1374  0.2236
  599EMI     C411366   1.187   5.991   1.696  0.0816  0.0733 -0.2395
  599EMI     C511367   1.133   5.888   1.764  0.2306 -0.7817  0.8400
  599EMI     H211368   0.870   6.029   1.647 -3.2229  3.3284 -2.0175
  599EMI     H411369   1.290   6.008   1.681  1.4042 -0.1463  0.8623
  599EMI     H511370   1.193   5.819   1.813  0.2695 -1.4504  1.6987
  599EMI    C1'11371   1.099   6.194   1.575  0.2492 -0.2222  0.6226
  599EMI    H1'11372   1.013   6.257   1.573 -0.4160 -0.5980 -2.7319
  599EMI    H1'11373   1.190   6.247   1.605  1.4181 -1.0032  2.3349
  599EMI    H1'11374   1.110   6.171   1.465 -0.8054 -2.2176 -1.3799
  599EMI    C1"11375   0.904   5.808   1.834 -0.1804  0.2763 -0.8204
  599EMI    H1"11376   0.806   5.840   1.825  1.1066  1.1823 -0.8525
  599EMI    H1"11377   0.930   5.822   1.944 -1.3020 -0.0841  1.8055
  599EMI    C2"11378   0.921   5.660   1.792  0.4056  0.4942  0.4916
  599EMI    H2"11379   0.866   5.596   1.854 -0.3460 -1.7969 -3.3128
  599EMI    H2"11380   0.879   5.649   1.693  1.2512  1.9320 -0.0541
  599EMI    H2"11381   1.024   5.645   1.795 -2.0736 -0.8660 -3.2345
  600EMI     N111382   0.950   5.766   3.041  0.1203 -0.8144  0.2208
  600EMI     C211383   0.835   5.713   2.989  0.1422  0.0930 -0.2325
  600EMI     N311384   0.735   5.805   2.986 -0.0929  0.3054 -0.6953
  600EMI     C411385   0.791   5.923   3.030 -1.2430  0.2231 -0.3509
  600EMI     C511386   0.922   5.897   3.052  0.0131 -0.3001 -0.6113
  600EMI     H211387   0.828   5.614   2.956  0.0991  1.9394 -1.5062
  600EMI     H411388   0.739   6.014   3.043  1.5378 -1.7292 -0.2857
  600EMI     H511389   0.995   5.974   3.085  0.3388 -0.4902 -2.0916
  600EMI    C1'11390   0.595   5.778   2.953 -0.3436 -0.3353 -0.1915
  600EMI    H1'11391   0.575   5.804   2.844 -0.9687 -0.7153 -1.0613
  600EMI    H1'11392   0.575   5.670   2.972  3.0059 -0.9004  1.4322
  600EMI    H1'11393   0.531   5.840   3.018  0.9230 -0.1943  1.3749
  600EMI    C1"11394   1.078   5.695   3.072 -0.4105  0.3856  0.5088
  600EMI    H1"11395   1.052   5.592   3.096  0.1918 -2.8728  0.9072
  600EMI    H1"11396   1.122   5.744   3.157 -0.1069  1.8195  2.9202
  600EMI    C2"11397   1.186   5.697   2.954 -0.3367 -0.0279 -0.4338
  600EMI    H2"11398   1.266   5.620   2.967  0.7401 -1.8672 -1.3891
  600EMI    H2"11399   1.131   5.676   2.868 -0.7454  0.0915 -1.2989
  600EMI    H2"11400   1.223   5.803   2.930 -0.4020 -0.6734  0.8529
  601EMI     N111401   5.225   5.876   3.598 -0.6300 -0.3240  0.2410
  601EMI     C211402   5.302   5.984   3.582 -0.2929 -0.6319 -0.4362
  601EMI     N311403   5.265   6.078   3.668  0.2872 -0.1551 -0.5887
  601EMI     C411404   5.158   6.032   3.735 -0.5567  0.6062  0.8178
  601EMI     C511405   5.131   5.905   3.690 -0.6165  0.3978  0.0922
  601EMI     H211406   5.383   6.001   3.509  0.4389  2.5641  0.6042
  601EMI     H411407   5.095   6.091   3.805 -1.0418  0.4654  0.9622
  601EMI     H511408   5.058   5.836   3.730 -0.0801 -1.4284  2.5186
  601EMI    C1'11409   5.334   6.203   3.706  0.2717 -0.2862 -0.0814
  601EMI    H1'11410   5.283   6.295   3.693  0.3904 -0.6160 -0.4276
  601EMI    H1'11411   5.360   6.196   3.808  0.5862  0.1579  0.2919
  601EMI    H1'11412   5.426   6.210   3.658 -0.6237  0.4508  2.3523
  601EMI    C1"11413   5.225   5.751   3.526  0.9081 -0.5174 -0.0471
  601EMI    H1"11414   5.197   5.674   3.599  2.3155  0.3402 -2.0069
  601EMI    H1"11415   5.332   5.729   3.497  2.7858  1.6799  3.2327
  601EMI    C2"11416   5.136   5.730   3.398 -0.3540  0.2428 -0.0936
  601EMI    H2"11417   5.165   5.637   3.347  0.7127  1.1715  1.9315
  601EMI    H2"11418   5.027   5.728   3.425 -1.2194  1.2483 -0.1948
  601EMI    H2"11419   5.148   5.812   3.331  0.6361 -1.7413 -0.6040
  602EMI     N111420   4.412   0.649   0.459  0.0288 -0.1104  0.3960
  602EMI     C211421   4.491   0.674   0.564  0.6494 -0.2172 -0.3863
  602EMI     N311422   4.425   0.705   0.669 -0.4871  0.3528 -0.4623
  602EMI     C411423   4.297   0.715   0.626 -0.7485  0.0312 -0.4034
  602EMI     C511424   4.280   0.673   0.499 -0.3593  0.3969 -0.2430
  602EMI     H211425   4.597   0.648   0.568  0.2855 -0.3431 -1.5165
  602EMI     H411426   4.206   0.756   0.682 -0.3851  0.9301 -1.1489
  602EMI     H511427   4.198   0.677   0.435  2.1765 -2.5475  0.6307
  602EMI    C1'11428   4.472   0.713   0.810 -0.0959 -0.2943  0.4189
  602EMI    H1'11429   4.573   0.749   0.818 -0.4163 -1.5403  1.2811
  602EMI    H1'11430   4.419   0.794   0.863  0.8542  0.0138 -0.8671
  602EMI    H1'11431   4.460   0.625   0.864  0.3253  2.3090  2.2523
  602EMI    C1"11432   4.439   0.596   0.323  0.4131  0.2862 -0.7328
  602EMI    H1"11433   4.340   0.571   0.284  1.5136  0.9877 -1.9554
  602EMI    H1"11434   4.502   0.505   0.327 -0.6657 -0.1029  0.0113
  602EMI    C2"11435   4.492   0.714   0.237  0.4069 -0.4983  0.1861
  602EMI    H2"11436   4.417   0.786   0.229  1.2809 -3.1478 -0.2740
  602EMI    H2"11437   4.579   0.760   0.285 -1.4633 -1.9287  1.4576
  602EMI    H2"11438   4.515   0.681   0.136 -1.4187 -0.2505  1.5629
  603EMI     N111439   0.294   6.048   0.728  0.0136  0.4172 -0.0374
  603EMI     C211440   0.239   6.125   0.827  0.3878  0.0238 -0.4833
  603EMI     N311441   0.286   6.248   0.819  0.2953 -0.2277  0.0753
  603EMI     C411442   0.370   6.261   0.715  0.4892  0.0383  0.3199
  603EMI     C511443   0.379   6.135   0.665 -0.2058  0.0215  0.2236
  603EMI     H211444   0.182   6.091   0.919 -0.3587 -0.1491  0.6853
  603EMI     H411445   0.420   6.359   0.708 -0.3172  0.1178  2.7186
  603EMI     H511446   0.445   6.106   0.589  0.2182 -1.6313  1.7374
  603EMI    C1'11447   0.260   6.363   0.902  0.3835 -0.0048  0.4606
  603EMI    H1'11448   0.331   6.388   0.978  0.0670 -1.8347 -1.1396
  603EMI    H1'11449   0.274   6.445   0.828  0.1748  4.2778  0.3653
  603EMI    H1'11450   0.159   6.365   0.929  1.3229  1.8025  0.8683
  603EMI    C1"11451   0.273   5.910   0.692 -0.0298 -0.5945 -0.3612
  603EMI    H1"11452   0.342   5.890   0.610 -0.0160 -1.6461  0.6992
  603EMI    H1"11453   0.173   5.897   0.645 -3.1069 -1.6255 -1.3081
  603EMI    C2"11454   0.296   5.808   0.806  0.1552  0.3955 -0.1973
  603EMI    H2"11455   0.377   5.824   0.868 -1.3498  0.0374  1.0959
  603EMI    H2"11456   0.204   5.794   0.875  1.0107 -0.3194  0.7639
  603EMI    H2"11457   0.318   5.704   0.766 -2.7964 -1.8549  0.4317
  604EMI     N111458   3.878   3.457   1.866  0.0802 -0.5431 -0.4945
  604EMI     C211459   3.909   3.579   1.824 -0.4014  0.0884 -0.7729
  604EMI     N311460   3.999   3.580   1.722  0.7693 -0.0747 -0.2653
  604EMI     C411461   4.027   3.451   1.695 -0.2137  0.2494  0.5558
  604EMI     C511462   3.954   3.373   1.783 -0.5352 -0.0601  0.2444
  604EMI     H211463   3.870   3.666   1.869 -1.5070  1.3744 -0.7724
  604EMI     H411464   4.105   3.418   1.629  2.4240 -1.4801 -0.6928
  604EMI     H511465   3.963   3.263   1.794  0.4338 -2.4921 -1.9560
  604EMI    C1'11466   4.063   3.701   1.668 -0.0743 -0.2905  0.1617
  604EMI    H1'11467   3.985   3.781   1.665 -1.9665  2.0905  0.4579
  604EMI    H1'11468   4.147   3.727   1.727  1.2732 -1.3887 -1.3927
  604EMI    H1'11469   4.085   3.684   1.571 -0.2503 -1.3387  2.2176
  604EMI    C1"11470   3.790   3.402   1.976  0.2284 -0.0165  0.1092
  604EMI    H1"11471   3.852   3.407   2.066  0.0777 -2.3325  1.0283
  604EMI    H1"11472   3.781   3.300   1.952  1.3497  1.3350  2.2289
  604EMI    C2"11473   3.659   3.484   1.981 -0.0088 -0.2471 -0.0068
  604EMI    H2"11474   3.687   3.585   1.971 -0.1688  2.4536  1.3673
  604EMI    H2"11475   3.598   3.443   1.903  0.7695  1.4488 -0.2270
  604EMI    H2"11476   3.617   3.470   2.077 -0.9686 -1.2687 -0.4101
  605EMI     N111477   3.248   3.238   4.063 -0.0077 -0.3172  0.5271
  605EMI     C211478   3.299   3.319   4.163  0.4321 -0.5194  0.8230
  605EMI     N311479   3.422   3.276   4.204  0.2119  0.2460 -0.3809
  605EMI     C411480   3.457   3.170   4.127 -0.5109  0.5024 -0.0587
  605EMI     C511481   3.349   3.143   4.041  0.6292 -0.2456 -0.0282
  605EMI     H211482   3.248   3.408   4.210 -1.4374  0.6050 -0.4829
  605EMI     H411483   3.545   3.105   4.139  1.0778 -1.6667 -0.9306
  605EMI     H511484   3.328   3.061   3.974  0.3633 -1.0719  2.1124
  605EMI    C1'11485   3.511   3.322   4.316 -0.7504  0.2994  0.7177
  605EMI    H1'11486   3.589   3.378   4.271  1.7752 -1.8311  3.1364
  605EMI    H1'11487   3.443   3.382   4.378 -3.3163  1.1668  0.2911
  605EMI    H1'11488   3.533   3.226   4.361 -0.0979  2.1434 -1.9513
  605EMI    C1"11489   3.110   3.227   3.999  0.2960  0.8465  0.3059
  605EMI    H1"11490   3.041   3.291   4.047  1.2344 -0.3756 -0.7302
  605EMI    H1"11491   3.071   3.126   4.007  0.5420  2.6369 -4.0391
  605EMI    C2"11492   3.115   3.265   3.852  0.3584 -1.0315  0.3218
  605EMI    H2"11493   3.012   3.256   3.807 -1.9768 -2.0303  1.9581
  605EMI    H2"11494   3.142   3.376   3.851  1.5253 -0.9939 -2.1354
  605EMI    H2"11495   3.182   3.204   3.795 -1.7550  0.8762  2.2903
  606EMI     N111496   1.593   1.908   4.290 -0.5520  0.8454  0.3710
  606EMI     C211497   1.587   1.989   4.186 -0.2095 -0.3323 -0.0901
  606EMI     N311498   1.712   2.008   4.137  0.1225 -0.0336  0.5132
  606EMI     C411499   1.801   1.930   4.212  0.1148 -0.1019  0.2921
  606EMI     C511500   1.730   1.870   4.310 -0.4751  0.2148 -0.9376
  606EMI     H211501   1.498   2.038   4.143 -0.5589 -1.8108 -1.7157
  606EMI     H411502   1.906   1.925   4.196  0.2757  3.1883  1.7094
  606EMI     H511503   1.772   1.811   4.386 -0.2534 -1.4082  0.0705
  606EMI    C1'11504   1.756   2.091   4.027  0.1449 -0.2064  0.7465
  606EMI    H1'11505   1.678   2.166   4.006  0.8670 -0.1212 -1.5631
  606EMI    H1'11506   1.856   2.127   4.036  4.0090  2.0168 -1.7466
  606EMI    H1'11507   1.760   2.022   3.941  2.5180  1.7448  1.4768
  606EMI    C1"11508   1.490   1.863   4.386  0.2255  0.1858 -0.4773
  606EMI    H1"11509   1.539   1.802   4.459 -1.7581 -1.7045  0.5047
  606EMI    H1"11510   1.414   1.797   4.336 -1.1727  3.6109  0.0310
  606EMI    C2"11511   1.417   1.976   4.458  0.1353  0.3034  0.4987
  606EMI    H2"11512   1.406   2.066   4.393 -0.4690 -0.2606 -2.3024
  606EMI    H2"11513   1.321   1.947   4.490 -0.8590 -0.5618  0.6367
  606EMI    H2"11514   1.465   1.997   4.545 -0.5340 -1.9884  1.8088
  607EMI     N111515   3.339   5.048   3.779 -0.1131 -0.1756  0.2512
  607EMI     C211516   3.307   4.930   3.836 -0.3664  0.0935  0.3590
  607EMI     N311517   3.343   4.941   3.966  0.5368 -1.0379 -0.8061
  607EMI     C411518   3.399   5.063   3.997  0.7654  0.3863 -0.2894
  607EMI     C511519   3.395   5.134   3.876  0.4708 -0.4257  0.0479
  607EMI     H211520   3.257   4.852   3.785 -0.5124  0.3355  1.7015
  607EMI     H411521   3.429   5.097   4.092  2.2936 -0.5272 -2.6741
  607EMI     H511522   3.423   5.235   3.852  0.5900 -1.7887  1.2138
  607EMI    C1'11523   3.312   4.838   4.069  0.8156  0.4629 -0.4978
  607EMI    H1'11524   3.206   4.822   4.085 -2.0548  0.3241  0.5530
  607EMI    H1'11525   3.362   4.741   4.051 -0.0542 -0.9286 -4.3035
  607EMI    H1'11526   3.357   4.871   4.158  0.0742  0.4105 -0.4808
  607EMI    C1"11527   3.302   5.095   3.644  0.3508  0.2131 -0.6400
  607EMI    H1"11528   3.354   5.044   3.569 -1.2680  2.0607 -2.2905
  607EMI    H1"11529   3.310   5.207   3.636 -0.2685  0.2985 -0.1407
  607EMI    C2"11530   3.157   5.073   3.617 -0.7939  0.1332 -0.0988
  607EMI    H2"11531   3.130   5.090   3.516  0.7480 -1.8268  1.8624
  607EMI    H2"11532   3.124   4.967   3.644 -1.7614 -1.2905  1.5135
  607EMI    H2"11533   3.109   5.150   3.678 -0.2349 -0.2031  0.5896
  608EMI     N111534   5.652   2.549   2.981  0.4319  0.1501 -0.0221
  608EMI     C211535   5.723   2.514   3.095 -0.0756 -0.5276 -0.4607
  608EMI     N311536   5.676   2.408   3.152 -0.5360 -0.1803  0.7519
  608EMI     C411537   5.580   2.358   3.065 -0.1008 -0.1777  0.8841
  608EMI     C511538   5.567   2.444   2.962  0.8712  0.0302  0.3532
  608EMI     H211539   5.801   2.583   3.131  2.7417  1.2228 -0.9338
  608EMI     H411540   5.516   2.274   3.085 -1.0898 -1.8452 -0.2952
  608EMI     H511541   5.502   2.437   2.873  2.5049 -0.5616 -0.0596
  608EMI    C1'11542   5.701   2.348   3.287 -0.7469  0.4920  0.1306
  608EMI    H1'11543   5.775   2.408   3.343  0.6187  2.1243 -0.0732
  608EMI    H1'11544   5.614   2.356   3.346 -0.5759 -0.0248 -0.7994
  608EMI    H1'11545   5.716   2.236   3.283  0.6215 -0.1741 -0.0352
  608EMI    C1"11546   5.652   2.664   2.887 -0.4114  1.5906 -0.1290
  608EMI    H1"11547   5.734   2.724   2.921  0.4831 -1.2442 -2.2162
  608EMI    H1"11548   5.560   2.712   2.893 -0.4992  2.6443  0.3087
  608EMI    C2"11549   5.683   2.619   2.750 -0.5948  0.4470  0.0716
  608EMI    H2"11550   5.694   2.707   2.682 -0.6996 -1.3270 -0.1475
  608EMI    H2"11551   5.763   2.546   2.736 -1.2083  1.2051  0.9619
  608EMI    H2"11552   5.594   2.563   2.722 -2.0426  2.5686  1.0448
  609EMI     N111553   6.267   3.394   2.402  0.7180 -0.8012 -0.4420
  609EMI     C211554   6.399   3.392   2.430 -0.3689  0.2466 -0.8892
  609EMI     N311555   6.455   3.508   2.397  0.1837 -0.2247  0.3546
  609EMI     C411556   6.360   3.584   2.340 -0.7818 -0.7151  0.7519
  609EMI     C511557   6.242   3.515   2.344  0.5367  0.4957  0.3457
  609EMI     H211558   6.468   3.309   2.458  0.2889  0.0673 -0.6587
  609EMI     H411559   6.381   3.676   2.290 -1.4587  0.3520  1.1893
  609EMI     H511560   6.151   3.547   2.292 -0.5328  3.8509 -1.3317
  609EMI    C1'11561   6.598   3.556   2.407 -1.3523  0.5427  0.4479
  609EMI    H1'11562   6.599   3.668   2.404 -0.6504 -0.9148  1.9087
  609EMI    H1'11563   6.637   3.531   2.507  2.0410 -2.8129  0.2196
  609EMI    H1'11564   6.659   3.507   2.330  3.4018 -1.5610  0.4342
  609EMI    C1"11565   6.162   3.289   2.416 -0.4853 -0.2643  0.4890
  609EMI    H1"11566   6.066   3.328   2.376 -0.8669  2.5408 -1.4770
  609EMI    H1"11567   6.145   3.260   2.516  0.8999 -0.0895 -0.1614
  609EMI    C2"11568   6.203   3.165   2.341  0.2363 -0.4691  0.0247
  609EMI    H2"11569   6.308   3.141   2.360  0.5274 -0.5861  0.1797
  609EMI    H2"11570   6.138   3.077   2.369 -2.1596 -1.5492  0.6030
  609EMI    H2"11571   6.191   3.188   2.233 -0.9628  1.1168  2.7217
  610EMI     N111572   2.417   4.835   4.607 -0.1989  1.3564  0.0540
  610EMI     C211573   2.470   4.824   4.728 -0.0976  0.7352 -0.7505
  610EMI     N311574   2.552   4.929   4.754  0.2617  0.3227  0.0177
  610EMI     C411575   2.554   5.001   4.636 -0.3484 -0.7265 -0.0397
  610EMI     C511576   2.473   4.943   4.548 -0.0291 -0.1384 -0.1055
  610EMI     H211577   2.454   4.748   4.805 -0.5717  0.7848  0.2139
  610EMI     H411578   2.606   5.093   4.614 -3.0533  0.2309 -1.9488
  610EMI     H511579   2.449   4.979   4.448 -1.4125  1.2975  0.9927
  610EMI    C1'11580   2.650   4.962   4.865  0.0453  0.4569 -0.4355
  610EMI    H1'11581   2.630   4.885   4.939  0.5725 -0.3437  0.0847
  610EMI    H1'11582   2.752   4.981   4.833  1.2037 -1.6282 -2.4553
  610EMI    H1'11583   2.618   5.056   4.904  2.8992 -1.8624 -0.7507
  610EMI    C1"11584   2.317   4.739   4.544  0.5210  0.1999  0.2018
  610EMI    H1"11585   2.217   4.777   4.567 -0.8362  1.6453  0.1688
  610EMI    H1"11586   2.321   4.637   4.590 -0.5355 -0.5319  1.8568
  610EMI    C2"11587   2.332   4.729   4.397 -0.7738 -0.0540  0.2073
  610EMI    H2"11588   2.293   4.634   4.371  0.5167 -0.4844  3.0157
  610EMI    H2"11589   2.277   4.815   4.352 -1.8630  2.6304  1.5190
  610EMI    H2"11590   2.443   4.733   4.373  0.2976  1.6069  1.3994
  611EMI     N111591   0.702   2.734   5.364 -0.3473 -0.5224 -0.2585
  611EMI     C211592   0.706   2.823   5.470  0.7102  0.2220  0.0075
  611EMI     N311593   0.628   2.772   5.568 -0.4995  0.2666 -0.7811
  611EMI     C411594   0.596   2.639   5.537  0.2484 -0.6129 -0.2832
  611EMI     C511595   0.639   2.621   5.412  0.5170 -0.0991  0.0277
  611EMI     H211596   0.737   2.931   5.467  1.1785  1.4027  1.8561
  611EMI     H411597   0.529   2.584   5.598 -1.9837  0.3374 -0.8545
  611EMI     H511598   0.612   2.536   5.350 -0.8115 -0.1576  0.4186
  611EMI    C1'11599   0.596   2.832   5.698 -0.4872  0.3433 -0.2154
  611EMI    H1'11600   0.580   2.754   5.777 -2.5413 -3.0095  0.1523
  611EMI    H1'11601   0.677   2.903   5.731  0.5765  0.5648  0.0860
  611EMI    H1'11602   0.507   2.891   5.690 -1.4031 -0.5328 -0.0720
  611EMI    C1"11603   0.739   2.758   5.221 -0.3413  0.4748 -0.0985
  611EMI    H1"11604   0.822   2.828   5.217 -1.6078 -2.3289  0.2906
  611EMI    H1"11605   0.660   2.799   5.157 -1.1949 -1.9793 -1.8412
  611EMI    C2"11606   0.795   2.627   5.149 -0.0722 -0.4252 -0.4784
  611EMI    H2"11607   0.819   2.640   5.049 -1.1641 -1.1226  3.0240
  611EMI    H2"11608   0.880   2.596   5.212  0.6052 -1.0812  0.8096
  611EMI    H2"11609   0.719   2.551   5.142  1.0781  0.2242  1.4832
  612EMI     N111610   1.054   1.222   3.160 -0.4067  0.3342 -0.0433
  612EMI     C211611   0.995   1.252   3.043  0.6672  0.5249  0.0927
  612EMI     N311612   0.891   1.169   3.019 -1.3358  0.2235  0.0791
  612EMI     C411613   0.888   1.078   3.118  0.2972  0.0465  0.1981
  612EMI     C511614   0.979   1.114   3.206  0.8470  0.5562  0.0694
  612EMI     H211615   1.024   1.325   2.980  2.3881  0.2090  0.5166
  612EMI     H411616   0.824   0.989   3.119  1.1087 -1.9671 -0.2350
  612EMI     H511617   0.991   1.062   3.295 -1.8895 -3.8125 -0.4447
  612EMI    C1'11618   0.804   1.165   2.902  0.0778 -0.0642 -0.7223
  612EMI    H1'11619   0.712   1.113   2.937  1.7758 -2.0626  0.0955
  612EMI    H1'11620   0.769   1.268   2.883  1.2638 -1.5281 -1.8000
  612EMI    H1'11621   0.847   1.125   2.810 -0.2724  0.2413  0.4732
  612EMI    C1"11622   1.165   1.277   3.238  0.3903 -0.6456 -0.3106
  612EMI    H1"11623   1.257   1.232   3.212  1.7206 -0.0953 -1.0100
  612EMI    H1"11624   1.149   1.266   3.342 -0.5184 -0.1348  0.6824
  612EMI    C2"11625   1.167   1.432   3.205  0.1002  0.5039  0.2471
  612EMI    H2"11626   1.242   1.492   3.263 -0.5132  0.6912  1.4160
  612EMI    H2"11627   1.186   1.443   3.102 -0.5810 -1.4425 -0.6047
  612EMI    H2"11628   1.065   1.474   3.214 -1.4022  0.8876 -0.9158
  613EMI     N111629   5.180   2.976   1.119 -0.2905  0.2244 -0.2820
  613EMI     C211630   5.134   2.937   1.002  0.3315 -0.3007  0.6014
  613EMI     N311631   5.226   2.870   0.931 -0.3412  0.1591 -0.0702
  613EMI     C411632   5.333   2.852   1.013 -0.4196 -0.0901 -0.1665
  613EMI     C511633   5.307   2.914   1.131  0.0883 -0.0395 -0.3931
  613EMI     H211634   5.031   2.961   0.970  1.0012 -4.4061 -2.2120
  613EMI     H411635   5.423   2.790   0.976  1.6419 -2.4081 -0.6548
  613EMI     H511636   5.364   2.910   1.219 -0.0792 -1.9988 -2.2961
  613EMI    C1'11637   5.224   2.805   0.798 -0.2650  0.5615  0.0269
  613EMI    H1'11638   5.306   2.744   0.778 -0.8943  4.0916 -0.1009
  613EMI    H1'11639   5.127   2.751   0.800  4.1805 -1.8395 -0.5864
  613EMI    H1'11640   5.220   2.884   0.726  1.6525  0.4336  0.0169
  613EMI    C1"11641   5.119   3.074   1.216  0.0163  0.1278  0.5203
  613EMI    H1"11642   5.151   3.180   1.178  2.0237  2.0302 -1.2224
  613EMI    H1"11643   5.159   3.067   1.317  1.6853 -1.0269 -0.2554
  613EMI    C2"11644   4.967   3.053   1.226  0.1272 -0.5738 -0.5222
  613EMI    H2"11645   4.919   3.058   1.132 -3.3105  1.4247 -0.2483
  613EMI    H2"11646   4.945   2.948   1.266 -0.8567  1.3266  2.6087
  613EMI    H2"11647   4.922   3.127   1.298  1.9411 -0.2586 -1.0501
  614EMI     N111648   3.977   0.025   4.024 -0.1632 -0.5995 -0.7445
  614EMI     C211649   3.979  -0.082   3.942 -0.5707 -0.0999  0.2557
  614EMI     N311650   3.885  -0.165   3.986 -0.2953  0.3099 -0.0290
  614EMI     C411651   3.821  -0.109   4.096 -0.1816  0.5386 -1.3975
  614EMI     C511652   3.883   0.009   4.122 -0.7584  0.3997  0.4168
  614EMI     H211653   4.057  -0.102   3.864  0.2165 -0.9064  2.2850
  614EMI     H411654   3.745  -0.164   4.148  0.9128 -1.4355  0.9295
  614EMI     H511655   3.860   0.080   4.201 -1.7967  1.5256  1.1648
  614EMI    C1'11656   3.854  -0.302   3.951 -0.4214  0.1938 -0.1292
  614EMI    H1'11657   3.789  -0.299   3.860 -0.0090  1.1945  1.2476
  614EMI    H1'11658   3.954  -0.344   3.941  0.7284 -1.1521  1.7624
  614EMI    H1'11659   3.806  -0.354   4.033  2.7848  1.3073 -2.7602
  614EMI    C1"11660   4.068   0.144   4.014 -0.4434  0.1039  0.1238
  614EMI    H1"11661   4.008   0.228   4.040  1.0651 -1.7099 -0.2822
  614EMI    H1"11662   4.115   0.154   3.913 -0.7281  0.3580 -1.0819
  614EMI    C2"11663   4.189   0.126   4.107  1.0419  0.0602 -0.0550
  614EMI    H2"11664   4.152   0.101   4.206 -2.4564  0.2934 -1.3338
  614EMI    H2"11665   4.246   0.044   4.057 -0.0700 -2.4344 -0.6167
  614EMI    H2"11666   4.252   0.221   4.110  1.4379  2.8192 -1.6139
  615EMI     N111667   4.987   6.220   0.147  0.1525 -0.5535  0.2486
  615EMI     C211668   4.933   6.122   0.077 -0.6053  0.4315  0.3494
  615EMI     N311669   4.972   6.133  -0.051 -0.0504  0.0014  0.5702
  615EMI     C411670   5.056   6.235  -0.062 -0.3277 -0.9395  0.7114
  615EMI     C511671   5.065   6.293   0.061  0.5195 -0.1148 -0.6820
  615EMI     H211672   4.862   6.050   0.111 -0.0311 -0.4465 -1.3328
  615EMI     H411673   5.102   6.267  -0.154 -0.5796 -1.3395 -1.7847
  615EMI     H511674   5.124   6.375   0.095 -0.8715  0.4656  1.3143
  615EMI    C1'11675   4.920   6.071  -0.172  1.2808  0.1515 -0.4170
  615EMI    H1'11676   4.871   5.971  -0.145  0.2227 -0.0442  2.7740
  615EMI    H1'11677   4.837   6.129  -0.219  2.0165 -2.2275 -0.1605
  615EMI    H1'11678   4.995   6.063  -0.253 -0.5769 -0.1642 -0.4596
  615EMI    C1"11679   4.963   6.256   0.288  0.6248 -1.1109 -0.4448
  615EMI    H1"11680   5.008   6.349   0.309 -2.1678  1.0747  0.4863
  615EMI    H1"11681   5.003   6.176   0.352  0.6898 -0.2444  1.2782
  615EMI    C2"11682   4.817   6.277   0.323  0.5071  0.2696 -0.0277
  615EMI    H2"11683   4.769   6.177   0.329 -1.0935 -0.1783  1.4329
  615EMI    H2"11684   4.812   6.319   0.422 -1.7623  0.3856  0.6219
  615EMI    H2"11685   4.775   6.331   0.243 -1.3963 -1.8706 -1.2662
  616EMI     N111686   0.303   4.151   4.280 -0.3006 -0.0412 -0.3438
  616EMI     C211687   0.283   4.222   4.400 -0.3613  0.7066  0.1137
  616EMI     N311688   0.305   4.356   4.371  0.2942 -0.4291 -0.2059
  616EMI     C411689   0.320   4.367   4.237 -0.2000 -0.0426  0.3073
  616EMI     C511690   0.339   4.246   4.183 -0.3332  0.3452  0.1150
  616EMI     H211691   0.284   4.176   4.496  0.7522  1.3142 -3.1775
  616EMI     H411692   0.331   4.462   4.184 -0.0927  1.6602 -1.1623
  616EMI     H511693   0.358   4.220   4.082 -2.4741 -3.1140  1.5219
  616EMI    C1'11694   0.305   4.479   4.453  0.4555  0.0630 -0.4544
  616EMI    H1'11695   0.203   4.502   4.481  0.4650 -0.1169  0.6011
  616EMI    H1'11696   0.356   4.458   4.545  0.5125 -1.3086 -1.9799
  616EMI    H1'11697   0.354   4.559   4.392 -1.0570  2.1157 -3.4532
  616EMI    C1"11698   0.282   4.008   4.256  0.4447  0.1095  0.4319
  616EMI    H1"11699   0.287   3.987   4.146 -0.8612 -2.5494  1.4809
  616EMI    H1"11700   0.185   3.975   4.293  1.5029 -1.2311 -0.1999
  616EMI    C2"11701   0.393   3.924   4.315  1.2690  0.1628 -0.1518
  616EMI    H2"11702   0.475   3.947   4.259 -1.1280  0.1573 -2.1826
  616EMI    H2"11703   0.409   3.949   4.423 -0.0222  2.2196  0.5514
  616EMI    H2"11704   0.365   3.819   4.300  1.0586 -0.3222  2.4125
  617EMI     N111705   0.955   4.947   3.234  0.0466  0.3853 -0.1761
  617EMI     C211706   0.849   5.028   3.241  0.1248 -0.4295  0.5918
  617EMI     N311707   0.852   5.109   3.349 -0.0091  0.2909 -0.1027
  617EMI     C411708   0.973   5.090   3.412 -0.0701 -0.3934  0.1989
  617EMI     C511709   1.031   4.991   3.338 -0.5721  0.2973  0.0765
  617EMI     H211710   0.775   5.025   3.169 -0.2328 -0.6362 -0.5852
  617EMI     H411711   1.009   5.137   3.497  0.3059 -1.8333 -2.2273
  617EMI     H511712   1.131   4.940   3.358  1.2177  0.9305  1.2961
  617EMI    C1'11713   0.754   5.215   3.387 -0.2943 -0.1740  0.4559
  617EMI    H1'11714   0.665   5.207   3.324  2.2945 -0.0019  0.7047
  617EMI    H1'11715   0.722   5.209   3.485 -1.0513 -1.8641  0.5682
  617EMI    H1'11716   0.802   5.312   3.374  1.2188 -0.2317  1.5996
  617EMI    C1"11717   0.986   4.837   3.144  0.4993  0.1134 -0.9053
  617EMI    H1"11718   1.092   4.843   3.116  0.1029 -1.4920  0.3257
  617EMI    H1"11719   0.925   4.834   3.056  1.2553 -2.4426  0.4743
  617EMI    C2"11720   0.975   4.700   3.215 -0.2497  0.2200 -0.0253
  617EMI    H2"11721   0.867   4.686   3.231 -0.1180  0.5373  1.2865
  617EMI    H2"11722   1.025   4.623   3.154  0.2483  1.0110 -1.1991
  617EMI    H2"11723   1.027   4.709   3.312  0.4214 -1.0806 -0.4413
  618EMI     N111724   4.623   2.086   0.612  0.8831  0.1572 -0.1516
  618EMI     C211725   4.651   2.216   0.616  0.7293 -0.3100 -0.0443
  618EMI     N311726   4.618   2.267   0.739  0.1586  0.6062 -0.0125
  618EMI     C411727   4.562   2.160   0.810 -0.0726 -0.4317 -0.4113
  618EMI     C511728   4.563   2.050   0.736 -0.0947  0.1446 -0.9397
  618EMI     H211729   4.679   2.282   0.534  1.0475 -2.2580  1.9819
  618EMI     H411730   4.510   2.165   0.903 -0.4283  0.1613 -2.2384
  618EMI     H511731   4.534   1.949   0.761  0.6318  0.9726 -0.9935
  618EMI    C1'11732   4.626   2.413   0.775  0.4543  0.0248  0.4517
  618EMI    H1'11733   4.540   2.440   0.832  2.4582  1.2122 -0.6045
  618EMI    H1'11734   4.719   2.429   0.832  0.7646 -0.3716  2.9781
  618EMI    H1'11735   4.625   2.477   0.686  0.8147 -0.0806 -1.1397
  618EMI    C1"11736   4.653   1.983   0.514 -0.4916  0.0936 -0.7436
  618EMI    H1"11737   4.740   1.918   0.544  1.1121 -0.0122  0.4003
  618EMI    H1"11738   4.668   2.026   0.416 -1.9280 -0.8089 -0.0212
  618EMI    C2"11739   4.531   1.885   0.492  0.5327  0.2995 -0.2709
  618EMI    H2"11740   4.536   1.805   0.567  2.5091  2.9647  2.0530
  618EMI    H2"11741   4.435   1.932   0.509  0.4257 -0.0076  2.3909
  618EMI    H2"11742   4.536   1.845   0.384  0.5784 -0.5196  0.7658
  619EMI     N111743   2.037   0.903   4.281  0.3487 -0.2454  0.2942
  619EMI     C211744   2.120   0.956   4.190 -0.0195 -0.2075 -0.3288
  619EMI     N311745   2.248   0.953   4.230 -0.3293  0.0313  0.7478
  619EMI     C411746   2.244   0.865   4.341 -0.0883 -1.1793 -0.3919
  619EMI     C511747   2.116   0.837   4.374  0.2751 -0.1315  0.0190
  619EMI     H211748   2.091   1.013   4.097 -3.3450  1.6881 -0.9983
  619EMI     H411749   2.330   0.828   4.394  1.6498  1.0538 -1.2510
  619EMI     H511750   2.076   0.778   4.456 -0.0549  0.3603 -0.1922
  619EMI    C1'11751   2.379   0.988   4.162  0.3097 -0.5202  0.6452
  619EMI    H1'11752   2.449   0.917   4.193  1.2214  1.0762 -0.5807
  619EMI    H1'11753   2.359   0.989   4.050 -0.0505  0.0562  0.0401
  619EMI    H1'11754   2.424   1.080   4.189  0.2589 -3.4854 -1.2167
  619EMI    C1"11755   1.894   0.906   4.295  0.6146 -0.4521 -0.0349
  619EMI    H1"11756   1.873   0.940   4.394 -1.0707  0.1729  0.5550
  619EMI    H1"11757   1.859   0.803   4.275  0.7063  0.1912 -1.7093
  619EMI    C2"11758   1.832   0.999   4.188 -0.5434  0.0639  0.5512
  619EMI    H2"11759   1.863   0.976   4.086  0.3474 -0.3989 -0.3220
  619EMI    H2"11760   1.725   0.990   4.195 -1.6879  2.2434 -5.8842
  619EMI    H2"11761   1.858   1.104   4.193  1.1821 -0.7986  0.2760
  620EMI     N111762   5.273   3.100   4.050 -0.2892  0.1318  0.7956
  620EMI     C211763   5.340   2.997   4.105  0.1085 -0.8589 -0.4645
  620EMI     N311764   5.312   2.887   4.032 -0.4372  0.1615  0.1976
  620EMI     C411765   5.213   2.918   3.943  0.5610  0.5027 -0.3047
  620EMI     C511766   5.191   3.049   3.952 -0.5538  0.3443  0.0228
  620EMI     H211767   5.413   3.011   4.187 -3.3080 -1.6151 -1.1419
  620EMI     H411768   5.157   2.841   3.886 -0.4657 -0.8253  2.7913
  620EMI     H511769   5.121   3.113   3.911  0.9365  4.2670 -0.8225
  620EMI    C1'11770   5.352   2.740   4.056  0.8492  0.0236 -0.2618
  620EMI    H1'11771   5.453   2.728   4.044 -3.7870  3.4066  2.7794
  620EMI    H1'11772   5.318   2.710   4.152 -0.1695  1.6742 -3.7656
  620EMI    H1'11773   5.312   2.684   3.973  0.0192 -0.2282 -0.2918
  620EMI    C1"11774   5.282   3.246   4.073 -0.0787 -0.3899 -0.3449
  620EMI    H1"11775   5.246   3.301   3.987 -0.5160  0.5958 -1.7069
  620EMI    H1"11776   5.386   3.278   4.100  0.2573 -0.3652 -1.5895
  620EMI    C2"11777   5.200   3.291   4.201  0.6874 -0.0642  0.3466
  620EMI    H2"11778   5.105   3.239   4.190 -0.6760  0.3663  1.3304
  620EMI    H2"11779   5.250   3.253   4.287  0.0109  1.2512 -0.4369
  620EMI    H2"11780   5.188   3.403   4.199 -0.0907 -2.9224  0.7684
  621EMI     N111781   0.115   4.014   6.158  0.1224 -0.7705 -0.8266
  621EMI     C211782  -0.013   3.972   6.174 -0.1338  0.7530 -0.2844
  621EMI     N311783  -0.096   4.066   6.137 -0.1963  0.3371 -1.0053
  621EMI     C411784  -0.014   4.167   6.077 -0.4510 -0.0470 -0.0731
  621EMI     C511785   0.120   4.129   6.085 -0.5918  0.6129 -0.5287
  621EMI     H211786  -0.047   3.888   6.237 -2.4329 -0.7431 -2.2797
  621EMI     H411787  -0.064   4.257   6.033  0.5186 -0.4735  0.6418
  621EMI     H511788   0.208   4.186   6.056  0.6610 -1.4201 -2.5608
  621EMI    C1'11789  -0.245   4.080   6.139 -0.5457 -0.6462 -0.6576
  621EMI    H1'11790  -0.287   4.000   6.203  0.3665 -0.8252  1.4845
  621EMI    H1'11791  -0.271   4.179   6.180 -0.4738  1.5915 -0.7624
  621EMI    H1'11792  -0.284   4.076   6.039  3.3825 -0.1869  0.9228
  621EMI    C1"11793   0.243   3.949   6.193  0.0919 -0.2152  0.5754
  621EMI    H1"11794   0.333   3.998   6.149 -0.0182  1.3794 -1.1128
  621EMI    H1"11795   0.236   3.851   6.154  2.1096 -0.2925 -2.0940
  621EMI    C2"11796   0.260   3.932   6.336  0.1496  0.0672 -0.1554
  621EMI    H2"11797   0.321   3.844   6.353 -0.5293 -1.8383 -0.7239
  621EMI    H2"11798   0.309   4.024   6.383 -0.6638 -0.7320  0.8641
  621EMI    H2"11799   0.168   3.923   6.400  0.2863  1.1836  3.0915
  622EMI     N111800   3.204   5.611   4.511 -0.0942  0.1286 -0.1246
  622EMI     C211801   3.275   5.495   4.498  0.2095  0.0041 -0.8936
  622EMI     N311802   3.345   5.465   4.607  0.1228 -0.4523 -0.5054
  622EMI     C411803   3.318   5.573   4.698 -0.0803  0.0550  0.0819
  622EMI     C511804   3.228   5.656   4.636 -0.5629 -0.6152  0.0992
  622EMI     H211805   3.265   5.427   4.411  1.5049 -2.7250 -1.5047
  622EMI     H411806   3.371   5.595   4.787 -1.5875  0.9529 -0.2393
  622EMI     H511807   3.193   5.755   4.677  0.0887 -0.2078  0.6544
  622EMI    C1'11808   3.435   5.344   4.625 -0.1727  0.0887 -0.7450
  622EMI    H1'11809   3.478   5.308   4.531 -1.3439 -0.3060  1.3522
  622EMI    H1'11810   3.513   5.376   4.694  1.6224 -0.4522  0.7603
  622EMI    H1'11811   3.368   5.261   4.662  5.6453 -0.1227  2.6077
  622EMI    C1"11812   3.117   5.684   4.417 -0.5832  0.3372 -0.0903
  622EMI    H1"11813   3.104   5.792   4.453  1.2172 -0.5217 -0.5044
  622EMI    H1"11814   3.023   5.621   4.407  0.1018 -0.6556 -0.7955
  622EMI    C2"11815   3.195   5.694   4.285  0.3753 -1.2810  0.9434
  622EMI    H2"11816   3.295   5.736   4.303  0.6611  1.0057  0.1604
  622EMI    H2"11817   3.206   5.596   4.249 -2.4342 -1.2568 -0.0562
  622EMI    H2"11818   3.135   5.752   4.218  2.9679 -0.3296  1.6742
  623EMI     N111819   2.155   6.101   3.501 -0.2734 -0.1835  0.6104
  623EMI     C211820   2.105   6.060   3.378 -0.1781  0.3744  0.0150
  623EMI     N311821   2.058   5.936   3.385 -0.2576  0.0850  0.5818
  623EMI     C411822   2.067   5.900   3.515 -0.1532  0.4363  0.4543
  623EMI     C511823   2.127   5.996   3.583 -0.2058 -0.3456 -0.1361
  623EMI     H211824   2.080   6.122   3.295 -1.1291 -0.4432  4.0342
  623EMI     H411825   2.037   5.808   3.551 -0.9270 -0.4750  0.9720
  623EMI     H511826   2.155   5.989   3.688  0.7410  2.2402  1.4587
  623EMI    C1'11827   1.988   5.852   3.286  0.1748  0.0980 -0.7392
  623EMI    H1'11828   2.026   5.872   3.183  2.6460  1.7115  0.5749
  623EMI    H1'11829   1.999   5.750   3.319  1.9673  0.9277  0.4804
  623EMI    H1'11830   1.885   5.871   3.297  3.8885  2.6632 -1.8532
  623EMI    C1"11831   2.198   6.230   3.548  0.2081  0.3844 -0.8995
  623EMI    H1"11832   2.298   6.249   3.501  2.0766  3.2908 -1.6218
  623EMI    H1"11833   2.215   6.216   3.657  1.7029 -2.3152  0.7680
  623EMI    C2"11834   2.103   6.351   3.519 -0.1355 -0.0601  0.4534
  623EMI    H2"11835   2.144   6.439   3.562  0.1136  2.5022 -3.1388
  623EMI    H2"11836   2.086   6.350   3.409  1.0849 -2.9741 -1.0587
  623EMI    H2"11837   2.010   6.324   3.575  1.3287  1.2688 -0.4274
  624EMI     N111838   3.460   4.483   5.977 -0.3687 -0.2477  0.2598
  624EMI     C211839   3.509   4.585   5.904 -0.0687  0.6383  0.1630
  624EMI     N311840   3.595   4.538   5.812 -0.6666  0.8399 -0.5411
  624EMI     C411841   3.599   4.400   5.831  0.3415  0.3303  0.0608
  624EMI     C511842   3.514   4.364   5.932  0.7433 -0.6330  0.2476
  624EMI     H211843   3.486   4.689   5.904  0.1994  0.7582 -0.8753
  624EMI     H411844   3.665   4.325   5.776  0.4757 -1.6777  1.5098
  624EMI     H511845   3.487   4.268   5.970 -3.1654  0.4404 -0.5881
  624EMI    C1'11846   3.677   4.603   5.706 -0.3113 -0.7077  0.0632
  624EMI    H1'11847   3.614   4.665   5.638 -0.4078  0.3277 -0.2729
  624EMI    H1'11848   3.756   4.669   5.743  1.7018  2.9395  1.6973
  624EMI    H1'11849   3.716   4.522   5.653 -0.5675  1.7566  0.6895
  624EMI    C1"11850   3.348   4.487   6.078 -0.5355 -0.3618  0.6965
  624EMI    H1"11851   3.300   4.389   6.087 -1.2183  2.1649 -0.7692
  624EMI    H1"11852   3.262   4.556   6.048 -0.7740  0.6353 -2.8827
  624EMI    C2"11853   3.392   4.523   6.223  0.0996 -0.3533  0.5338
  624EMI    H2"11854   3.455   4.439   6.253 -1.9098  0.4828 -0.0962
  624EMI    H2"11855   3.440   4.624   6.233  1.1319  0.9507  0.1998
  624EMI    H2"11856   3.302   4.535   6.281  0.7626  0.5264 -0.0097
  625EMI     N111857   1.436   3.675   5.748  0.4280 -0.1173  0.1247
  625EMI     C211858   1.398   3.736   5.864  0.6822  0.2108 -0.0323
  625EMI     N311859   1.342   3.648   5.946  0.1291  0.8278 -0.0691
  625EMI     C411860   1.344   3.522   5.883 -0.2801 -0.9054 -0.0840
  625EMI     C511861   1.397   3.542   5.761  0.7612 -0.4344 -0.4929
  625EMI     H211862   1.421   3.831   5.898 -1.4788 -4.1089  0.4920
  625EMI     H411863   1.291   3.430   5.921 -0.9967 -0.6624 -1.4242
  625EMI     H511864   1.408   3.462   5.693  0.5316 -0.2717 -2.5405
  625EMI    C1'11865   1.315   3.670   6.093  0.3335 -0.5439 -0.3540
  625EMI    H1'11866   1.371   3.605   6.164  0.0126  0.0377 -0.2276
  625EMI    H1'11867   1.335   3.773   6.124 -0.0429  0.0257 -0.8359
  625EMI    H1'11868   1.209   3.632   6.100  0.2532  0.1198 -0.1747
  625EMI    C1"11869   1.516   3.728   5.631 -0.1106  0.0927  0.6935
  625EMI    H1"11870   1.599   3.657   5.623  1.0023 -1.0948  2.8726
  625EMI    H1"11871   1.550   3.831   5.649 -0.1178 -0.0260  0.5108
  625EMI    C2"11872   1.448   3.726   5.498  0.5688 -0.5135 -0.0742
  625EMI    H2"11873   1.417   3.617   5.479  0.2943 -2.6487  2.2673
  625EMI    H2"11874   1.357   3.790   5.498 -2.2655  3.5137  2.1588
  625EMI    H2"11875   1.515   3.766   5.422 -1.1456  0.0732 -2.4548
  626EMI     N111876   4.979   4.138   4.129 -0.1200 -0.2192 -0.8411
  626EMI     C211877   5.017   4.063   4.023  0.6078 -0.4449  0.5420
  626EMI     N311878   5.136   4.105   3.982  0.0426  0.4428  0.2790
  626EMI     C411879   5.173   4.209   4.065 -0.5411  0.3435  0.4776
  626EMI     C511880   5.073   4.232   4.155 -0.0968 -0.0211  0.0462
  626EMI     H211881   4.964   3.978   3.980 -1.1345  0.4903  0.1204
  626EMI     H411882   5.264   4.265   4.063  0.9671 -2.1476 -0.6079
  626EMI     H511883   5.070   4.310   4.226  0.4996  2.2545  0.6928
  626EMI    C1'11884   5.225   4.049   3.882  0.0202  0.1342 -0.5164
  626EMI    H1'11885   5.312   4.004   3.934  0.2280 -0.8136  0.9374
  626EMI    H1'11886   5.180   3.983   3.814  3.3133  1.9981 -0.5241
  626EMI    H1'11887   5.263   4.130   3.814  1.1355 -1.6442  0.3421
  626EMI    C1"11888   4.850   4.136   4.202  0.5363  0.3860  0.1049
  626EMI    H1"11889   4.814   4.235   4.210  0.3430 -0.4194 -1.5444
  626EMI    H1"11890   4.871   4.103   4.306 -0.0473 -1.4814 -0.3584
  626EMI    C2"11891   4.751   4.048   4.143 -0.7375  0.0495 -0.3627
  626EMI    H2"11892   4.668   4.041   4.217 -0.0202 -0.2479 -1.5626
  626EMI    H2"11893   4.717   4.092   4.053 -2.8824  1.0588  0.3478
  626EMI    H2"11894   4.787   3.947   4.126  0.4836  0.1367 -1.9035
  627EMI     N111895   6.096   5.548   2.737  0.3611  1.0610 -0.2463
  627EMI     C211896   5.983   5.505   2.668  0.4147 -0.2659 -0.3367
  627EMI     N311897   5.994   5.382   2.627  0.2852 -0.0720  0.0908
  627EMI     C411898   6.124   5.334   2.662 -0.4483 -0.3270  0.6514
  627EMI     C511899   6.185   5.436   2.736  0.0242  0.5625 -0.3856
  627EMI     H211900   5.900   5.576   2.659  1.5753 -1.7389 -1.3924
  627EMI     H411901   6.171   5.242   2.637  2.1174 -1.0769 -0.9106
  627EMI     H511902   6.292   5.440   2.775 -2.5015  1.7368  1.2449
  627EMI    C1'11903   5.895   5.301   2.554  0.1253  0.7393 -0.2270
  627EMI    H1'11904   5.850   5.230   2.620  0.3812  1.5562  0.8035
  627EMI    H1'11905   5.822   5.362   2.500  3.1135  1.8012 -2.0767
  627EMI    H1'11906   5.936   5.243   2.474  0.2928  0.4047 -1.3678
  627EMI    C1"11907   6.136   5.676   2.797  0.1256  0.0132  0.7234
  627EMI    H1"11908   6.057   5.747   2.779  1.2567  3.4107  0.6174
  627EMI    H1"11909   6.227   5.706   2.748  0.3675 -1.2955 -0.0274
  627EMI    C2"11910   6.164   5.659   2.951  0.3365  0.2052  0.3304
  627EMI    H2"11911   6.189   5.760   3.007  2.3848  0.3529  1.5424
  627EMI    H2"11912   6.078   5.618   2.997  0.4816  1.3712 -0.6545
  627EMI    H2"11913   6.249   5.597   2.979 -2.2915 -2.9968 -1.9030
  628EMI     N111914   0.656   4.045   4.829  0.5597  0.3642  0.0366
  628EMI     C211915   0.707   3.940   4.894 -0.4153  0.6603  0.4332
  628EMI     N311916   0.642   3.827   4.859  0.2384  0.6543 -0.5354
  628EMI     C411917   0.541   3.861   4.771  0.1313  0.0322 -0.0408
  628EMI     C511918   0.555   3.993   4.749  0.4939 -0.1625 -0.1802
  628EMI     H211919   0.794   3.946   4.955 -4.4052  0.5565  0.8316
  628EMI     H411920   0.468   3.798   4.720  0.0033 -0.6481 -1.4288
  628EMI     H511921   0.483   4.054   4.692 -0.2737  1.5498 -0.0092
  628EMI    C1'11922   0.685   3.696   4.892 -0.3772  0.4312 -0.3759
  628EMI    H1'11923   0.621   3.658   4.971  0.3698 -0.4963 -1.8762
  628EMI    H1'11924   0.659   3.634   4.813 -2.6453  0.5195  0.3684
  628EMI    H1'11925   0.786   3.669   4.908 -0.2100  0.6187  0.7649
  628EMI    C1"11926   0.696   4.188   4.828  0.2341  0.2900  0.0364
  628EMI    H1"11927   0.726   4.207   4.723 -2.0132 -0.6606  2.4485
  628EMI    H1"11928   0.776   4.215   4.895 -0.4867 -0.0922  0.6731
  628EMI    C2"11929   0.576   4.271   4.860  0.6507  0.2678  0.1376
  628EMI    H2"11930   0.486   4.232   4.815 -0.8043  3.0750  1.1310
  628EMI    H2"11931   0.564   4.281   4.969 -0.0284 -1.0361 -2.0182
  628EMI    H2"11932   0.601   4.374   4.816  2.5590  1.2221 -1.8618
  629EMI     N111933   1.813   3.452   5.304  0.3841 -0.1851  0.3086
  629EMI     C211934   1.737   3.384   5.394  0.2165  0.5046 -0.7543
  629EMI     N311935   1.715   3.258   5.351 -0.0158 -0.0523  0.2740
  629EMI     C411936   1.791   3.240   5.236  0.9749 -0.2306  0.4273
  629EMI     C511937   1.841   3.359   5.211 -0.4075 -0.2716  0.5863
  629EMI     H211938   1.693   3.425   5.482  0.1388  3.2244 -1.9870
  629EMI     H411939   1.794   3.152   5.177 -1.5565  1.3464 -0.1169
  629EMI     H511940   1.902   3.375   5.121 -0.0727 -0.2218 -1.2826
  629EMI    C1'11941   1.630   3.153   5.408  0.5428  0.4662 -0.3612
  629EMI    H1'11942   1.530   3.189   5.419 -0.4627  0.5880 -0.6883
  629EMI    H1'11943   1.633   3.063   5.349 -0.9556 -0.3042 -2.5963
  629EMI    H1'11944   1.675   3.128   5.503  1.0594 -1.6694 -2.7829
  629EMI    C1"11945   1.849   3.591   5.287  0.5256  0.3107 -0.2029
  629EMI    H1"11946   1.762   3.656   5.315  0.7875  0.5505 -0.4332
  629EMI    H1"11947   1.889   3.617   5.186 -0.5223 -1.6512 -1.4620
  629EMI    C2"11948   1.959   3.637   5.377  0.6060 -0.1147 -0.3692
  629EMI    H2"11949   1.913   3.677   5.475 -1.9156  0.6987 -1.4271
  629EMI    H2"11950   2.031   3.561   5.402 -1.6526  0.0513 -1.2221
  629EMI    H2"11951   2.010   3.720   5.321  0.9213 -1.5820  1.0151
  630EMI     N111952   1.106   5.099   2.803 -0.6856 -0.2122  0.2796
  630EMI     C211953   1.112   5.205   2.887 -0.3322  0.0618 -0.3010
  630EMI     N311954   0.994   5.219   2.947  0.1689 -0.1435 -0.2303
  630EMI     C411955   0.910   5.127   2.886  0.0505 -0.4537  0.1010
  630EMI     C511956   0.976   5.054   2.797 -0.2226  0.6395 -0.4955
  630EMI     H211957   1.202   5.267   2.902  0.3536  0.7418 -0.8950
  630EMI     H411958   0.800   5.125   2.907  1.5872 -1.1145  1.8512
  630EMI     H511959   0.939   4.980   2.726 -1.0206 -0.5044  0.2653
  630EMI    C1'11960   0.942   5.320   3.044  0.2409  0.2162 -0.0064
  630EMI    H1'11961   0.989   5.309   3.131  0.7172 -3.0732 -1.7217
  630EMI    H1'11962   0.944   5.422   3.006 -0.5769  0.0123  3.0001
  630EMI    H1'11963   0.837   5.305   3.060 -0.2822 -0.3315  2.0353
  630EMI    C1"11964   1.212   5.039   2.732  0.0771  0.6358 -0.1876
  630EMI    H1"11965   1.297   5.102   2.702  2.2155  1.0290 -1.1550
  630EMI    H1"11966   1.170   5.009   2.634  0.5036  0.9616  0.0480
  630EMI    C2"11967   1.266   4.922   2.818 -0.5572  0.2103 -0.4460
  630EMI    H2"11968   1.190   4.840   2.827  0.4980  0.8241  2.2691
  630EMI    H2"11969   1.348   4.892   2.759  1.8201  0.0447 -1.1917
  630EMI    H2"11970   1.308   4.955   2.912  1.9587  2.6361 -3.2148
  631EMI     N111971   5.415   4.521   0.104  0.5108 -0.6474  0.3695
  631EMI     C211972   5.310   4.532   0.188  0.8603 -0.1888  0.6926
  631EMI     N311973   5.238   4.641   0.158 -0.2685 -0.3513  0.1729
  631EMI     C411974   5.301   4.698   0.048  0.4649 -0.1144 -0.0199
  631EMI     C511975   5.407   4.619   0.015 -0.4687 -0.4396 -0.0347
  631EMI     H211976   5.294   4.453   0.261  0.1993 -2.6153 -0.5742
  631EMI     H411977   5.278   4.789   0.002 -1.1606  0.5167  0.8620
  631EMI     H511978   5.484   4.637  -0.061 -1.5306  1.4948 -0.9883
  631EMI    C1'11979   5.129   4.706   0.227 -0.1013 -0.4884 -0.6799
  631EMI    H1'11980   5.132   4.684   0.337 -0.6559  0.7008  3.4771
  631EMI    H1'11981   5.131   4.818   0.197  0.7220  3.1141 -3.5094
  631EMI    H1'11982   5.039   4.655   0.194 -0.8367 -2.7065  0.6735
  631EMI    C1"11983   5.497   4.407   0.065 -0.3843 -0.3312 -0.1629
  631EMI    H1"11984   5.604   4.436   0.059  0.0233 -1.0028 -2.1091
  631EMI    H1"11985   5.469   4.368  -0.035  0.2062 -2.2895  1.0308
  631EMI    C2"11986   5.479   4.277   0.146 -0.1352  0.4568 -0.4752
  631EMI    H2"11987   5.552   4.279   0.234 -1.3381  0.6127 -0.7787
  631EMI    H2"11988   5.379   4.273   0.188  2.1815 -1.4775  1.3548
  631EMI    H2"11989   5.500   4.189   0.086  0.6844  0.4986  1.6720
  632EMI     N111990   5.655   4.442   5.816  0.9012  0.3823  0.6085
  632EMI     C211991   5.739   4.373   5.732 -0.3927  0.2621  0.2399
  632EMI     N311992   5.862   4.424   5.731 -0.2151 -0.0262 -0.0746
  632EMI     C411993   5.856   4.536   5.816 -0.3600  0.5067  0.2392
  632EMI     C511994   5.732   4.543   5.865 -0.3401 -0.2329  0.5022
  632EMI     H211995   5.717   4.280   5.679 -0.7847 -0.0010  2.3226
  632EMI     H411996   5.935   4.604   5.848  0.0033 -0.9973 -1.0161
  632EMI     H511997   5.693   4.612   5.933 -0.1333 -2.6121 -1.6489
  632EMI    C1'11998   5.991   4.378   5.694 -0.1934  0.5487  0.2930
  632EMI    H1'11999   6.051   4.409   5.777 -1.9274  1.6242 -2.2036
  632EMI    H1'12000   5.992   4.271   5.680 -0.3729  0.7735  1.7893
  632EMI    H1'12001   6.006   4.425   5.596 -1.0931  0.9698  0.1083
  632EMI    C1"12002   5.508   4.440   5.846 -0.3386 -0.0646 -0.4626
  632EMI    H1"12003   5.445   4.454   5.755 -0.2325 -2.2109  0.2026
  632EMI    H1"12004   5.487   4.530   5.899  0.4282 -0.4546  0.0580
  632EMI    C2"12005   5.467   4.307   5.911  0.3683 -0.5447 -0.2644
  632EMI    H2"12006   5.513   4.309   6.004  2.2533 -1.5989 -0.4557
  632EMI    H2"12007   5.364   4.294   5.920  3.0109 -3.0567  2.0248
  632EMI    H2"12008   5.492   4.220   5.855  0.9516 -0.3620  0.3624
  633EMI     N112009   2.118   2.153   2.169 -0.3189 -0.8478 -0.0699
  633EMI     C212010   2.198   2.159   2.055  0.5929 -0.1588  0.1074
  633EMI     N312011   2.325   2.146   2.092  0.0313  0.0911 -0.1739
  633EMI     C412012   2.327   2.134   2.226  0.1974  0.7042 -0.5139
  633EMI     C512013   2.203   2.132   2.277 -0.0156 -0.8214  0.2911
  633EMI     H212014   2.156   2.197   1.968  0.0417  2.5239  0.4261
  633EMI     H412015   2.417   2.124   2.284 -1.0183 -3.2181  0.2137
  633EMI     H512016   2.171   2.112   2.380  1.4809  0.8994 -1.3064
  633EMI    C1'12017   2.454   2.151   2.015 -0.7510  0.3695  0.4138
  633EMI    H1'12018   2.436   2.161   1.906  0.0826 -0.0415 -1.2891
  633EMI    H1'12019   2.511   2.233   2.049 -0.8987 -0.2958  1.7249
  633EMI    H1'12020   2.501   2.051   2.036 -0.7468 -1.5728  0.6823
  633EMI    C1"12021   1.970   2.172   2.177 -0.0752 -0.4802  0.1565
  633EMI    H1"12022   1.941   2.272   2.122 -2.0323 -0.8231 -3.1655
  633EMI    H1"12023   1.926   2.179   2.278 -0.9024  0.1509 -1.4262
  633EMI    C2"12024   1.884   2.064   2.109 -0.4597  0.1366  0.1813
  633EMI    H2"12025   1.916   1.970   2.145  0.7547  1.6047 -1.8814
  633EMI    H2"12026   1.775   2.059   2.129 -0.2398  0.9148 -2.7946
  633EMI    H2"12027   1.885   2.054   1.998 -0.7077 -0.9729 -2.8807
  634EMI     N112028   1.989   2.924   4.972  0.7546 -0.5916 -0.0249
  634EMI     C212029   1.900   2.889   5.068  0.7765 -0.3556  0.2252
  634EMI     N312030   1.960   2.876   5.188 -0.6144 -0.4493 -0.1157
  634EMI     C412031   2.094   2.911   5.167 -0.8313  0.5303  0.1446
  634EMI     C512032   2.109   2.940   5.035 -0.4171 -0.2587  0.4964
  634EMI     H212033   1.798   2.848   5.053  1.1540  1.1815 -1.8833
  634EMI     H412034   2.169   2.918   5.242 -0.2917 -0.6982 -1.9878
  634EMI     H512035   2.199   2.970   4.990 -0.2237 -0.2912 -1.7459
  634EMI    C1'12036   1.910   2.861   5.327  0.2750  0.0504 -0.5612
  634EMI    H1'12037   1.857   2.763   5.328 -1.0086  2.2774 -0.1362
  634EMI    H1'12038   1.992   2.883   5.397 -2.3790 -0.4999  1.5754
  634EMI    H1'12039   1.840   2.945   5.348 -2.1782 -0.0496 -2.1792
  634EMI    C1"12040   1.978   2.952   4.826  0.0321 -0.2105  0.3139
  634EMI    H1"12041   2.036   3.038   4.805  3.2196 -0.5059  1.6730
  634EMI    H1"12042   1.868   2.959   4.807  1.9643 -1.5849  0.4788
  634EMI    C2"12043   2.021   2.828   4.758 -0.2434 -0.0407  0.2774
  634EMI    H2"12044   1.955   2.742   4.776  3.5554 -1.1450  0.8130
  634EMI    H2"12045   2.003   2.850   4.648 -1.1335  3.4595 -1.2389
  634EMI    H2"12046   2.130   2.797   4.784 -0.1577 -0.9627  1.6932
  635EMI     N112047   2.610   3.766   3.920  0.0160  0.1660 -0.6938
  635EMI     C212048   2.637   3.639   3.957  0.4283  0.4996  0.8291
  635EMI     N312049   2.772   3.623   3.964  0.3243  0.4836  0.2663
  635EMI     C412050   2.829   3.740   3.913 -0.0238  0.1783  0.0073
  635EMI     C512051   2.730   3.824   3.885  0.2899  0.1029 -0.6722
  635EMI     H212052   2.561   3.567   3.978  1.6122  2.6807  1.0570
  635EMI     H412053   2.933   3.749   3.903  0.0663  1.8975  2.1572
  635EMI     H512054   2.741   3.929   3.852  1.7719  1.4855 -1.7449
  635EMI    C1'12055   2.843   3.496   3.991  0.4458 -0.7682  0.0184
  635EMI    H1'12056   2.768   3.435   4.049  0.5301  0.8120 -1.2103
  635EMI    H1'12057   2.857   3.453   3.901  1.5110 -1.2287  3.1424
  635EMI    H1'12058   2.948   3.513   4.032 -0.9160 -2.7449  3.1392
  635EMI    C1"12059   2.476   3.826   3.888 -0.3569  0.4285  0.3508
  635EMI    H1"12060   2.466   3.931   3.914  1.7961 -1.2401 -0.6256
  635EMI    H1"12061   2.404   3.771   3.948  0.4683 -0.7853 -0.8380
  635EMI    C2"12062   2.452   3.815   3.734 -0.3993  0.0910 -0.8151
  635EMI    H2"12063   2.358   3.876   3.719  0.1186 -1.6311  3.2604
  635EMI    H2"12064   2.537   3.862   3.682  0.6031 -1.8674  0.6362
  635EMI    H2"12065   2.422   3.718   3.696 -0.2563 -2.2348  0.5895
  636EMI     N112066   3.250   0.344   4.601  0.1495 -0.0320  0.0902
  636EMI     C212067   3.317   0.440   4.531 -0.4141 -0.6786  0.8130
  636EMI     N312068   3.443   0.432   4.564  1.0885  0.1383 -0.5050
  636EMI     C412069   3.457   0.348   4.673 -0.1275  0.2290 -0.0613
  636EMI     C512070   3.340   0.285   4.686 -1.0454 -0.1245  0.2408
  636EMI     H212071   3.275   0.504   4.453 -0.3715  2.3142  0.6867
  636EMI     H412072   3.539   0.331   4.749  1.5208  0.1497  0.5458
  636EMI     H512073   3.309   0.213   4.754 -1.4816  1.2055  0.0147
  636EMI    C1'12074   3.551   0.526   4.531 -0.4764 -0.5825 -0.1638
  636EMI    H1'12075   3.525   0.623   4.583 -3.6220 -1.2268 -1.1196
  636EMI    H1'12076   3.641   0.486   4.574 -0.8479  1.7858 -1.2265
  636EMI    H1'12077   3.555   0.548   4.420  0.9210  0.6712 -4.2295
  636EMI    C1"12078   3.109   0.307   4.608 -0.2298 -0.0224 -0.2280
  636EMI    H1"12079   3.102   0.211   4.655 -0.4311  2.6570 -3.4199
  636EMI    H1"12080   3.074   0.309   4.502 -0.1678 -0.1728  0.3167
  636EMI    C2"12081   3.016   0.406   4.682 -0.3599 -0.4338  0.6458
  636EMI    H2"12082   2.918   0.368   4.693 -2.1434 -1.7716  0.5966
  636EMI    H2"12083   3.057   0.425   4.779 -0.7018  2.0037 -0.1577
  636EMI    H2"12084   3.014   0.505   4.636 -1.4481 -0.0635  0.7916
  637EMI     N112085   4.973   3.280   1.719  0.3028  0.8644 -0.3782
  637EMI     C212086   4.931   3.240   1.603 -0.0257  0.5086 -0.1186
  637EMI     N312087   4.816   3.170   1.619  0.1327  0.3345 -0.2037
  637EMI     C412088   4.793   3.166   1.752 -0.2786 -0.9414  0.1820
  637EMI     C512089   4.885   3.238   1.814 -0.4234 -0.1499  0.0941
  637EMI     H212090   4.972   3.253   1.504 -0.7576 -0.6030  0.7865
  637EMI     H412091   4.711   3.116   1.800  2.6273  0.8540  0.5250
  637EMI     H512092   4.892   3.255   1.919 -0.5056  0.6868  1.4341
  637EMI    C1'12093   4.715   3.126   1.524  0.6493  0.2970  0.3221
  637EMI    H1'12094   4.619   3.168   1.551  5.4068 -0.8070  1.4095
  637EMI    H1'12095   4.736   3.160   1.423  2.5057  0.5610 -0.3194
  637EMI    H1'12096   4.707   3.018   1.511 -1.6230  0.1205  0.9655
  637EMI    C1"12097   5.099   3.345   1.762  0.4367 -0.3018  0.9463
  637EMI    H1"12098   5.138   3.298   1.855 -0.8210  1.1039  0.7415
  637EMI    H1"12099   5.083   3.451   1.771 -0.6881  1.4311  2.0779
  637EMI    C2"12100   5.212   3.317   1.659 -0.0863 -0.2094  0.1405
  637EMI    H2"12101   5.201   3.365   1.565 -0.1116  0.5423  0.9587
  637EMI    H2"12102   5.310   3.334   1.702  0.1950 -1.4566  2.5813
  637EMI    H2"12103   5.204   3.211   1.621  0.8672 -2.1788 -1.8827
  638EMI     N112104   3.497   1.761   4.426  0.1767 -0.0975 -0.4877
  638EMI     C212105   3.444   1.843   4.515  0.0861 -0.4091  0.0930
  638EMI     N312106   3.544   1.885   4.594 -0.5525 -0.0170 -0.4734
  638EMI     C412107   3.661   1.837   4.541  0.5921 -0.1123  0.4051
  638EMI     C512108   3.630   1.753   4.443  0.4187  0.8832 -0.0886
  638EMI     H212109   3.346   1.876   4.527  1.9755  1.7838 -0.1327
  638EMI     H412110   3.762   1.864   4.566  1.1436 -0.9636 -0.0925
  638EMI     H512111   3.692   1.695   4.381 -0.4973 -0.4186  0.6926
  638EMI    C1'12112   3.541   1.974   4.713  0.3161  0.3852  0.1661
  638EMI    H1'12113   3.621   1.948   4.783 -0.1634  0.3823  1.7459
  638EMI    H1'12114   3.556   2.079   4.671  1.4065 -0.9519 -2.4517
  638EMI    H1'12115   3.448   1.958   4.761 -1.0551 -1.3996  0.0861
  638EMI    C1"12116   3.422   1.685   4.327 -0.3178  0.0338  0.1206
  638EMI    H1"12117   3.321   1.671   4.360  2.0235  2.6368 -1.4089
  638EMI    H1"12118   3.473   1.590   4.302 -0.7152 -0.5889  0.8328
  638EMI    C2"12119   3.412   1.757   4.189 -0.8901 -0.1157  0.3112
  638EMI    H2"12120   3.321   1.724   4.137 -0.5983 -2.5924 -2.5935
  638EMI    H2"12121   3.425   1.867   4.188  3.4829  1.1242 -1.7821
  638EMI    H2"12122   3.495   1.716   4.134  0.0523  1.4673 -1.8789
  639EMI     N112123   3.768   1.441   2.253 -0.0550  0.0184 -0.1325
  639EMI     C212124   3.654   1.499   2.293  0.2728 -0.5962  0.4512
  639EMI     N312125   3.589   1.544   2.181  0.7852  0.5186  0.0809
  639EMI     C412126   3.673   1.537   2.074  0.4706 -0.1624  0.1766
  639EMI     C512127   3.786   1.468   2.115  0.5243 -0.1852  0.1251
  639EMI     H212128   3.624   1.509   2.393 -1.1843 -2.2279  0.9733
  639EMI     H412129   3.644   1.570   1.978 -2.5470 -2.0796  1.2002
  639EMI     H512130   3.866   1.433   2.051  1.4085 -2.1376 -2.1625
  639EMI    C1'12131   3.453   1.592   2.163 -0.2802 -0.2818  0.2793
  639EMI    H1'12132   3.384   1.531   2.221  4.3533 -3.1825  1.6262
  639EMI    H1'12133   3.458   1.696   2.190 -1.3364  0.5508  1.2326
  639EMI    H1'12134   3.417   1.591   2.057  0.4840 -0.0537  1.2280
  639EMI    C1"12135   3.866   1.372   2.342 -0.0647 -0.5061  1.0576
  639EMI    H1"12136   3.932   1.315   2.274 -0.2758  1.2379 -1.9800
  639EMI    H1"12137   3.817   1.297   2.411  2.7945  2.2092  0.7759
  639EMI    C2"12138   3.943   1.480   2.427 -0.5116  0.6907  0.1636
  639EMI    H2"12139   3.984   1.558   2.360 -0.4722 -2.9624 -0.8284
  639EMI    H2"12140   3.881   1.523   2.499  1.1339  1.0970  2.5926
  639EMI    H2"12141   4.032   1.429   2.470  1.0993  0.0886  0.3858
  640EMI     N112142   4.115   0.352   4.369  0.5202  0.7202  0.0955
  640EMI     C212143   4.008   0.297   4.432  0.0484 -0.1263  0.2385
  640EMI     N312144   4.051   0.200   4.514 -0.1971 -0.0323 -0.4004
  640EMI     C412145   4.186   0.191   4.502 -0.3934  0.0204 -0.0416
  640EMI     C512146   4.228   0.292   4.420  0.6735 -0.5081 -0.0956
  640EMI     H212147   3.905   0.332   4.432  2.7903 -0.8738  0.3844
  640EMI     H412148   4.247   0.123   4.556 -2.4458 -2.1035 -0.4137
  640EMI     H512149   4.335   0.314   4.399  0.4055 -0.4613  1.9000
  640EMI    C1'12150   3.974   0.137   4.622 -0.9563 -0.2261  0.1233
  640EMI    H1'12151   4.005   0.035   4.636 -0.8164  1.5060  2.0147
  640EMI    H1'12152   3.969   0.194   4.710 -1.8600  0.4641  1.8326
  640EMI    H1'12153   3.867   0.136   4.587 -2.1122  1.5514 -3.0777
  640EMI    C1"12154   4.119   0.461   4.271  0.0441 -0.0539 -0.0944
  640EMI    H1"12155   4.042   0.457   4.197  3.4011 -4.8940  1.8319
  640EMI    H1"12156   4.208   0.454   4.204  1.5753 -1.1566 -0.2034
  640EMI    C2"12157   4.129   0.588   4.358  0.2903 -0.6920 -1.0010
  640EMI    H2"12158   4.237   0.620   4.356 -0.4380  1.4104  1.7593
  640EMI    H2"12159   4.068   0.671   4.323 -0.7178 -1.0306  1.3150
  640EMI    H2"12160   4.095   0.566   4.465 -2.8864  2.4089  2.7702
  641EMI     N112161   4.593   0.642   2.379  0.0107  0.0249  0.1885
  641EMI     C212162   4.522   0.738   2.317 -0.5074 -0.3885  0.4199
  641EMI     N312163   4.520   0.848   2.400 -0.0781 -0.1360  0.0652
  641EMI     C412164   4.586   0.810   2.523 -0.0063 -0.5097 -0.2833
  641EMI     C512165   4.634   0.684   2.504 -0.3755 -0.5699 -0.1724
  641EMI     H212166   4.464   0.720   2.222 -0.4639 -0.5018  0.7735
  641EMI     H412167   4.604   0.867   2.613 -4.6975  0.4760  2.4930
  641EMI     H512168   4.698   0.620   2.567  0.9220  1.3506 -1.0241
  641EMI    C1'12169   4.456   0.981   2.390  0.4943  0.5757  0.3177
  641EMI    H1'12170   4.522   1.064   2.364 -1.0644 -0.3769  1.1725
  641EMI    H1'12171   4.371   0.978   2.324  1.7970  1.0484  0.9371
  641EMI    H1'12172   4.420   1.007   2.484 -1.9413 -1.9724 -1.2626
  641EMI    C1"12173   4.621   0.508   2.333 -0.9272  0.7842  0.3036
  641EMI    H1"12174   4.724   0.484   2.357 -1.8433  1.3999 -0.9407
  641EMI    H1"12175   4.632   0.495   2.225  1.1151 -1.4173 -2.3968
  641EMI    C2"12176   4.528   0.408   2.399  0.1477 -0.1789  0.3720
  641EMI    H2"12177   4.535   0.420   2.505  2.9788 -0.0813  1.1692
  641EMI    H2"12178   4.428   0.409   2.342 -0.7793  0.7982 -0.0867
  641EMI    H2"12179   4.573   0.308   2.385  1.7533  1.0777 -0.2263
  642EMI     N112180   5.950   5.136   0.186  0.3845 -0.5306 -0.1610
  642EMI     C212181   6.021   5.022   0.191  0.1828  0.1748 -0.7657
  642EMI     N312182   5.976   4.938   0.098 -0.6283 -0.1354  0.3707
  642EMI     C412183   5.888   5.014   0.023 -0.1717 -0.2200  0.9966
  642EMI     C512184   5.874   5.138   0.073  0.1890 -0.5075  0.2591
  642EMI     H212185   6.093   5.004   0.269  0.9065  2.0902 -1.8851
  642EMI     H412186   5.858   4.979  -0.072  0.0176  1.3474 -1.2974
  642EMI     H512187   5.827   5.225   0.029 -0.0717  1.6334  0.9180
  642EMI    C1'12188   5.996   4.798   0.064 -0.5747  0.0995  0.3444
  642EMI    H1'12189   6.047   4.796  -0.034 -0.1099  0.2105 -1.4046
  642EMI    H1'12190   6.066   4.752   0.131  0.8890  0.3339 -2.0486
  642EMI    H1'12191   5.903   4.751   0.052 -0.7557 -0.4352 -0.5292
  642EMI    C1"12192   5.948   5.252   0.281 -0.0624 -0.6657  0.4579
  642EMI    H1"12193   5.978   5.219   0.377 -1.3252 -0.5679 -0.1325
  642EMI    H1"12194   5.852   5.286   0.297 -2.0406  1.7077  2.5436
  642EMI    C2"12195   6.050   5.357   0.236 -0.0840 -0.4236  0.0094
  642EMI    H2"12196   6.146   5.315   0.226 -2.1052  1.6912  1.1355
  642EMI    H2"12197   6.036   5.391   0.135  2.9600 -0.7870  0.8355
  642EMI    H2"12198   6.057   5.444   0.309 -0.1890  0.7605  1.1593
  643EMI     N112199   2.113   3.483   1.948  0.1199  0.4089 -0.2573
  643EMI     C212200   2.246   3.476   1.973 -0.3975 -0.8484  0.2058
  643EMI     N312201   2.274   3.350   2.022  0.4684  0.0419  0.0645
  643EMI     C412202   2.158   3.277   2.024 -0.5911 -0.1026  0.4522
  643EMI     C512203   2.059   3.359   1.971  0.3544 -0.4925 -0.8264
  643EMI     H212204   2.328   3.554   1.953  2.4372  3.6422 -0.5285
  643EMI     H412205   2.147   3.185   2.079  0.1060 -0.7432  0.5842
  643EMI     H512206   1.949   3.337   1.972  1.9225  2.3876  1.5516
  643EMI    C1'12207   2.398   3.283   2.067  0.3536 -0.7250  0.2557
  643EMI    H1'12208   2.393   3.175   2.053  0.6329 -1.1791  1.0499
  643EMI    H1'12209   2.478   3.325   2.009  2.4932  0.8867 -0.6345
  643EMI    H1'12210   2.419   3.301   2.171  0.2315  2.1989 -1.1783
  643EMI    C1"12211   2.034   3.596   1.896  0.3401 -0.4924 -0.1435
  643EMI    H1"12212   1.935   3.604   1.947  3.6642  1.4017  0.1797
  643EMI    H1"12213   2.008   3.574   1.789  2.7114 -0.2264 -1.7521
  643EMI    C2"12214   2.104   3.730   1.904  0.7073  0.1470  0.3168
  643EMI    H2"12215   2.159   3.734   2.004  0.1338 -0.3495  2.3691
  643EMI    H2"12216   2.176   3.736   1.824 -1.6681 -1.6336  0.6080
  643EMI    H2"12217   2.030   3.806   1.896  1.5777  1.8719  0.9586
  644EMI     N112218   3.868   0.810   4.082  0.0833  0.1098 -0.5664
  644EMI     C212219   3.838   0.802   4.212 -0.6958  0.1621 -0.0009
  644EMI     N312220   3.850   0.922   4.271 -0.1528 -0.1215  0.8396
  644EMI     C412221   3.862   1.022   4.168 -0.5231  0.7475  0.1761
  644EMI     C512222   3.866   0.943   4.051  0.0277 -0.4699  0.2541
  644EMI     H212223   3.821   0.713   4.274  0.3447 -2.0695 -0.2824
  644EMI     H412224   3.847   1.127   4.163 -0.6407  2.7092 -1.5624
  644EMI     H512225   3.851   0.984   3.949 -2.5690  0.6726 -0.5861
  644EMI    C1'12226   3.848   0.956   4.418 -0.1472  0.7263  0.2060
  644EMI    H1'12227   3.925   0.890   4.470  0.3538  0.3579 -1.5713
  644EMI    H1'12228   3.883   1.062   4.418 -2.1590 -0.8571 -0.8288
  644EMI    H1'12229   3.750   0.947   4.462 -2.7281 -1.6047 -1.1992
  644EMI    C1"12230   3.880   0.696   3.985 -0.3057 -0.8742  0.6090
  644EMI    H1"12231   3.950   0.615   4.015  0.7858  1.4670  3.7068
  644EMI    H1"12232   3.923   0.731   3.887  1.5486 -2.1874 -0.4571
  644EMI    C2"12233   3.744   0.632   3.946 -0.5017  0.1677 -0.1047
  644EMI    H2"12234   3.680   0.603   4.033  0.3242  2.6096 -1.1476
  644EMI    H2"12235   3.696   0.693   3.873 -1.4277  1.8019 -1.3996
  644EMI    H2"12236   3.762   0.537   3.906 -2.0347  0.6720 -0.3810
  645EMI     N112237   0.654   1.248   5.168  0.6096  0.6048 -0.4555
  645EMI     C212238   0.713   1.129   5.194  0.1941  0.0057 -0.3823
  645EMI     N312239   0.675   1.085   5.317  0.0115 -0.5826 -0.2274
  645EMI     C412240   0.589   1.178   5.370  0.6470  0.0170  0.1096
  645EMI     C512241   0.583   1.278   5.281  0.2446  0.1484  0.0936
  645EMI     H212242   0.793   1.084   5.138  1.5810 -1.6233  1.1191
  645EMI     H412243   0.534   1.169   5.464 -1.3003 -2.2880  1.1615
  645EMI     H512244   0.525   1.370   5.293  1.9222 -1.6059  1.6924
  645EMI    C1'12245   0.708   0.963   5.398 -0.0226 -0.0245  0.2786
  645EMI    H1'12246   0.734   1.000   5.495 -0.3079  0.0391 -0.0908
  645EMI    H1'12247   0.634   0.886   5.381 -2.0081  2.0977  1.8823
  645EMI    H1'12248   0.797   0.928   5.350 -0.4754  2.0873  1.5010
  645EMI    C1"12249   0.667   1.336   5.050 -0.4185 -0.6047 -0.0995
  645EMI    H1"12250   0.751   1.322   4.990 -0.1435 -0.8471  0.3830
  645EMI    H1"12251   0.689   1.432   5.092  2.3597 -1.7087  1.3276
  645EMI    C2"12252   0.538   1.332   4.962  0.6009  0.0929  0.0547
  645EMI    H2"12253   0.527   1.416   4.893  0.2243  1.8587 -0.1918
  645EMI    H2"12254   0.533   1.235   4.917 -1.2456 -1.0723  1.7481
  645EMI    H2"12255   0.447   1.329   5.023 -0.3698  0.7716 -1.2416
  646EMI     N112256   5.342   2.638   0.484 -0.2294  0.0213 -0.0518
  646EMI     C212257   5.438   2.732   0.468 -0.5585  0.0372  0.0031
  646EMI     N312258   5.387   2.835   0.398  0.0332  0.4480 -0.2248
  646EMI     C412259   5.256   2.800   0.373 -0.2631  0.3616 -0.2552
  646EMI     C512260   5.224   2.684   0.433 -0.5710  0.2282  0.5152
  646EMI     H212261   5.543   2.721   0.508  1.1275  0.0567 -0.5767
  646EMI     H412262   5.188   2.869   0.329  0.7129  0.4685  1.5555
  646EMI     H512263   5.129   2.638   0.430  0.5743 -0.4421  1.4910
  646EMI    C1'12264   5.444   2.959   0.355 -0.0260  0.4474  0.7914
  646EMI    H1'12265   5.465   3.017   0.441  0.6443 -0.3420 -0.9328
  646EMI    H1'12266   5.532   2.948   0.294 -1.7419 -0.9669  0.5351
  646EMI    H1'12267   5.381   3.011   0.291  1.8088 -2.6155 -0.7759
  646EMI    C1"12268   5.338   2.529   0.581 -0.2219 -0.1865  0.3266
  646EMI    H1"12269   5.260   2.466   0.546  0.4428  1.3447  0.2437
  646EMI    H1"12270   5.306   2.566   0.678 -1.1449  1.0516 -3.6689
  646EMI    C2"12271   5.474   2.465   0.607 -0.4736 -0.1130  0.1977
  646EMI    H2"12272   5.542   2.534   0.649  0.9401  0.5858 -1.4991
  646EMI    H2"12273   5.466   2.381   0.672  2.3398  0.1213 -0.4449
  646EMI    H2"12274   5.497   2.409   0.516 -3.1113 -2.3328 -0.9662
  647EMI     N112275   4.577   5.242   5.544 -0.2896 -0.3171  0.6832
  647EMI     C212276   4.495   5.201   5.445  0.2869 -0.8855  0.5090
  647EMI     N312277   4.549   5.092   5.392  0.0406 -0.4660 -0.3575
  647EMI     C412278   4.667   5.061   5.456  0.1893  0.1952 -0.0535
  647EMI     C512279   4.688   5.161   5.545 -0.0862  0.4262 -0.3911
  647EMI     H212280   4.399   5.245   5.415  0.5506  0.6528 -1.0799
  647EMI     H412281   4.728   4.979   5.434  0.9345  2.0501 -2.4171
  647EMI     H512282   4.777   5.168   5.609 -3.6287 -2.3155 -0.7192
  647EMI    C1'12283   4.506   5.002   5.288  0.0378 -0.1505 -1.1581
  647EMI    H1'12284   4.477   5.065   5.206  1.2495 -0.2601 -0.0309
  647EMI    H1'12285   4.585   4.931   5.270  1.2556  1.0035 -0.0434
  647EMI    H1'12286   4.417   4.956   5.325  0.0986  0.0516 -0.2684
  647EMI    C1"12287   4.566   5.360   5.634  0.4134  0.3828  0.2461
  647EMI    H1"12288   4.667   5.383   5.661 -1.4382 -0.6907  0.9732
  647EMI    H1"12289   4.522   5.322   5.721 -0.3923 -1.3101  2.7072
  647EMI    C2"12290   4.506   5.492   5.579  0.0533 -0.6095  0.1572
  647EMI    H2"12291   4.560   5.537   5.500  0.2891  0.1935  2.0056
  647EMI    H2"12292   4.400   5.468   5.558 -1.4811 -1.1531  0.3324
  647EMI    H2"12293   4.504   5.563   5.663  1.1299  0.4277  0.3941
  648EMI     N112294   5.506   0.143   0.470 -0.0365  0.6861 -0.4330
  648EMI     C212295   5.475   0.100   0.595 -0.2561  0.2044  0.3782
  648EMI     N312296   5.531   0.180   0.684 -0.5686  0.1136  0.5610
  648EMI     C412297   5.597   0.279   0.611  0.1452  0.0943  0.2640
  648EMI     C512298   5.587   0.254   0.485  0.1696 -0.4531  0.6020
  648EMI     H212299   5.414   0.015   0.621  1.6842 -2.1415  0.4332
  648EMI     H412300   5.651   0.364   0.648  0.7162  1.2929  0.4635
  648EMI     H512301   5.630   0.311   0.406 -1.8496 -0.1924  0.4269
  648EMI    C1'12302   5.539   0.172   0.825  0.1094  0.6387  0.0709
  648EMI    H1'12303   5.636   0.141   0.855  1.6578 -1.4099  2.2404
  648EMI    H1'12304   5.521   0.261   0.876  1.5218  0.4186  0.2263
  648EMI    H1'12305   5.463   0.101   0.849  1.2402  0.2979 -0.5526
  648EMI    C1"12306   5.475   0.079   0.340  0.0626  0.6309 -0.2139
  648EMI    H1"12307   5.441  -0.024   0.363  0.0612 -2.3304  0.2735
  648EMI    H1"12308   5.563   0.073   0.274  0.3185 -2.2447 -2.1828
  648EMI    C2"12309   5.366   0.151   0.269 -0.1868  0.9831  0.1456
  648EMI    H2"12310   5.342   0.112   0.163 -0.9357 -1.4300 -1.4178
  648EMI    H2"12311   5.275   0.155   0.325 -0.3859 -0.8638  0.5105
  648EMI    H2"12312   5.390   0.256   0.266  4.8254 -0.2717 -1.3109
  649EMI     N112313   1.697   3.442   3.963 -0.3105 -0.2737 -0.0860
  649EMI     C212314   1.656   3.470   4.089 -0.4881 -0.2118 -1.3133
  649EMI     N312315   1.586   3.375   4.138  0.6967 -0.1291 -0.9627
  649EMI     C412316   1.564   3.280   4.041 -0.3300 -0.7957  0.5420
  649EMI     C512317   1.640   3.318   3.936  0.5545  0.1327  0.2278
  649EMI     H212318   1.703   3.551   4.147 -1.1289  1.5071 -1.8967
  649EMI     H412319   1.509   3.192   4.048  2.6935  3.5038  0.9868
  649EMI     H512320   1.653   3.261   3.841  0.4842 -0.5787 -1.1283
  649EMI    C1'12321   1.542   3.350   4.274 -0.1138  0.5635  0.2913
  649EMI    H1'12322   1.632   3.335   4.340 -1.4776  1.7229  1.3868
  649EMI    H1'12323   1.477   3.423   4.313  1.2663  0.3329 -0.4427
  649EMI    H1'12324   1.499   3.249   4.275 -0.5815 -0.0222  0.1316
  649EMI    C1"12325   1.801   3.506   3.878  0.2190  0.3786 -0.1293
  649EMI    H1"12326   1.840   3.449   3.802  0.7670  1.2649  1.8230
  649EMI    H1"12327   1.876   3.553   3.937  0.2530  3.9200  0.9193
  649EMI    C2"12328   1.739   3.631   3.809 -0.3511  0.0698 -0.0610
  649EMI    H2"12329   1.826   3.680   3.754  1.4407 -1.1958 -0.2704
  649EMI    H2"12330   1.671   3.593   3.732  0.8666 -0.7525  0.7106
  649EMI    H2"12331   1.678   3.678   3.888 -3.3827  1.0131  0.4786
  650EMI     N112332   0.061   2.154   5.749 -0.3087 -0.4864  0.3173
  650EMI     C212333  -0.060   2.111   5.777  0.2572  0.0037  1.2897
  650EMI     N312334  -0.148   2.212   5.755  0.1067  0.3913 -0.6425
  650EMI     C412335  -0.079   2.324   5.713 -0.2154 -0.3247  0.2395
  650EMI     C512336   0.049   2.287   5.708 -0.1252 -0.2003 -0.6260
  650EMI     H212337  -0.082   2.005   5.812  1.9692 -2.3056  0.8472
  650EMI     H412338  -0.119   2.418   5.678 -3.2875 -2.9666 -0.9184
  650EMI     H512339   0.137   2.342   5.666  0.7080  2.0849 -2.3283
  650EMI    C1'12340  -0.290   2.194   5.790 -0.3884 -0.0298  0.0219
  650EMI    H1'12341  -0.313   2.085   5.776 -0.0285 -0.1057 -0.4582
  650EMI    H1'12342  -0.311   2.221   5.891  0.3021  0.5493 -2.6934
  650EMI    H1'12343  -0.346   2.261   5.733 -1.0549 -0.9630  0.3927
  650EMI    C1"12344   0.192   2.081   5.756  0.4617 -0.2873 -0.1916
  650EMI    H1"12345   0.194   2.027   5.846 -0.4770 -0.8180  1.8158
  650EMI    H1"12346   0.271   2.156   5.767 -0.9183  1.5494  0.9164
  650EMI    C2"12347   0.216   1.992   5.635  0.3016  0.0491 -0.5919
  650EMI    H2"12348   0.296   1.924   5.654  0.1220  1.3836 -0.1092
  650EMI    H2"12349   0.126   1.936   5.613 -0.4243 -1.8803 -0.0185
  650EMI    H2"12350   0.247   2.039   5.539 -0.4913 -1.4361 -0.6830
  651EMI     N112351   1.197   0.296   0.140  0.0309  0.5230 -0.5235
  651EMI     C212352   1.123   0.315   0.251  0.0806  1.2117 -0.9790
  651EMI     N312353   1.001   0.371   0.226  0.4269  0.0895 -0.2668
  651EMI     C412354   0.998   0.380   0.090 -0.0603  0.2556  0.1850
  651EMI     C512355   1.109   0.334   0.040 -0.3236  0.3370  0.0511
  651EMI     H212356   1.149   0.274   0.348  1.2548  1.1844 -0.9666
  651EMI     H412357   0.919   0.430   0.043  2.9233 -0.4786  1.9502
  651EMI     H512358   1.135   0.322  -0.067 -1.6358 -2.3210  0.0097
  651EMI    C1'12359   0.884   0.402   0.308  0.2275 -0.2852  0.6550
  651EMI    H1'12360   0.872   0.334   0.392  0.0029 -1.8076  2.1239
  651EMI    H1'12361   0.890   0.501   0.337 -0.1341  4.2533 -2.2059
  651EMI    H1'12362   0.797   0.414   0.237 -0.9873 -0.5700  0.4177
  651EMI    C1"12363   1.325   0.233   0.120 -0.4772  1.0968  0.1399
  651EMI    H1"12364   1.350   0.227   0.012 -1.0156 -0.3057 -1.6343
  651EMI    H1"12365   1.320   0.130   0.160  3.0029 -0.2008 -3.3401
  651EMI    C2"12366   1.433   0.297   0.206 -0.1606  0.1001  0.0664
  651EMI    H2"12367   1.464   0.396   0.165 -1.2229 -1.0837 -0.9184
  651EMI    H2"12368   1.391   0.306   0.308 -0.6916 -0.1175 -0.1837
  651EMI    H2"12369   1.522   0.241   0.217  0.6602  2.0234 -0.7880
  652EMI     N112370   5.571   1.203   6.317 -0.1228  0.0924  0.4496
  652EMI     C212371   5.673   1.289   6.292 -0.0674 -0.5376 -0.1942
  652EMI     N312372   5.635   1.387   6.209 -0.1739  0.0174  0.2169
  652EMI     C412373   5.501   1.365   6.178 -0.3419  0.7387 -0.1960
  652EMI     C512374   5.465   1.251   6.248  0.1855 -1.1458  0.2017
  652EMI     H212375   5.770   1.283   6.344 -0.0620  1.9862  2.0390
  652EMI     H412376   5.425   1.423   6.117 -2.0049  2.6702  2.7248
  652EMI     H512377   5.369   1.203   6.242  1.5626 -0.6432 -0.1113
  652EMI    C1'12378   5.706   1.505   6.173 -0.3397  0.4757  0.1345
  652EMI    H1'12379   5.792   1.481   6.109  1.2140  1.8463  0.5423
  652EMI    H1'12380   5.652   1.572   6.105 -0.4340 -0.0207 -2.4935
  652EMI    H1'12381   5.733   1.564   6.263 -2.4815  1.4746 -0.8958
  652EMI    C1"12382   5.562   1.092   6.410 -0.1826  0.3571  0.4425
  652EMI    H1"12383   5.658   1.053   6.428 -0.7584 -2.4331  2.1989
  652EMI    H1"12384   5.497   1.023   6.363  1.8064  0.2084 -1.1320
  652EMI    C2"12385   5.511   1.145   6.547  0.2049 -0.8757 -0.1087
  652EMI    H2"12386   5.571   1.229   6.582 -0.8739 -0.9517  1.0044
  652EMI    H2"12387   5.405   1.170   6.539 -1.6255 -0.2171 -0.2848
  652EMI    H2"12388   5.518   1.072   6.629  0.4791  3.1521  0.9910
  653EMI     N112389   1.333   0.060   5.070 -0.0949 -0.1751 -0.0880
  653EMI     C212390   1.224   0.088   5.003 -0.5316 -0.9530  0.6659
  653EMI     N312391   1.156  -0.024   4.978 -0.1399  0.1422  0.2828
  653EMI     C412392   1.226  -0.134   5.026 -0.4718 -0.8986  0.0029
  653EMI     C512393   1.335  -0.077   5.080 -0.2266  0.0648 -0.1267
  653EMI     H212394   1.186   0.186   4.976 -0.9832  0.7417 -0.9943
  653EMI     H412395   1.195  -0.236   5.016  0.1009  1.2376 -1.9610
  653EMI     H512396   1.413  -0.134   5.130 -0.0645 -0.5650  0.9495
  653EMI    C1'12397   1.034  -0.045   4.901  0.2789  0.2321  0.1931
  653EMI    H1'12398   0.950  -0.007   4.959  1.5288 -0.5122 -2.0997
  653EMI    H1'12399   1.034  -0.005   4.804  0.0265 -1.3465  1.0802
  653EMI    H1'12400   1.023  -0.153   4.885 -0.4314 -0.7907 -1.4082
  653EMI    C1"12401   1.443   0.155   5.103 -0.7038  0.0562 -0.6018
  653EMI    H1"12402   1.498   0.112   5.193  0.4129 -4.2497 -0.1966
  653EMI    H1"12403   1.399   0.248   5.136  1.4530 -2.2704  0.6284
  653EMI    C2"12404   1.533   0.172   4.981  0.4112  0.3300  0.4069
  653EMI    H2"12405   1.489   0.250   4.916  0.4685 -2.1577 -2.0212
  653EMI    H2"12406   1.636   0.196   5.015 -2.8180  0.3733  0.3880
  653EMI    H2"12407   1.530   0.075   4.925  0.1262  0.6795 -1.0530
  654EMI     N112408   1.796   1.507   5.439 -0.3115 -0.1581  0.5174
  654EMI     C212409   1.750   1.630   5.484  0.1930  0.2753  0.2002
  654EMI     N312410   1.711   1.615   5.612 -0.3355  0.0874  0.3921
  654EMI     C412411   1.734   1.487   5.652 -0.2183  1.1433  0.4986
  654EMI     C512412   1.782   1.419   5.545 -0.1039 -0.1219  0.8948
  654EMI     H212413   1.733   1.721   5.424 -2.2325  1.8224  0.1946
  654EMI     H412414   1.717   1.442   5.752  0.1767  1.6104 -0.4721
  654EMI     H512415   1.825   1.316   5.543 -0.4715 -3.9615 -1.8976
  654EMI    C1'12416   1.653   1.723   5.698 -0.0252  0.1370  0.2842
  654EMI    H1'12417   1.731   1.755   5.761  2.9686  1.0117  1.1611
  654EMI    H1'12418   1.625   1.804   5.635 -2.3953 -1.5746  1.9249
  654EMI    H1'12419   1.568   1.682   5.751  0.7405 -1.8554  0.8554
  654EMI    C1"12420   1.875   1.472   5.314 -0.4770  0.6219  0.1201
  654EMI    H1"12421   1.814   1.404   5.260  0.6781 -0.2738  2.0089
  654EMI    H1"12422   1.970   1.424   5.345 -1.0538  0.4334 -2.3426
  654EMI    C2"12423   1.900   1.592   5.223  0.5761 -0.2177 -0.4764
  654EMI    H2"12424   1.943   1.676   5.284  1.9192  0.3619 -0.5929
  654EMI    H2"12425   1.972   1.560   5.153 -0.2845 -1.2289  0.3346
  654EMI    H2"12426   1.808   1.632   5.173 -1.2614 -1.6684 -1.2952
  655EMI     N112427   2.988   5.733   0.171  0.3800 -0.1797  0.1772
  655EMI     C212428   3.097   5.683   0.232  0.1521 -0.3731 -0.3524
  655EMI     N312429   3.209   5.714   0.158 -0.5949 -0.2713 -0.7778
  655EMI     C412430   3.163   5.779   0.046  0.8172 -1.0732  0.1875
  655EMI     C512431   3.027   5.791   0.057  0.7506 -0.7992  0.0372
  655EMI     H212432   3.097   5.635   0.326 -1.4736 -1.4916  1.0414
  655EMI     H412433   3.220   5.818  -0.033 -1.8537 -2.3821  0.6364
  655EMI     H512434   2.962   5.848  -0.013 -0.7032  1.1368 -1.5305
  655EMI    C1'12435   3.351   5.682   0.176 -0.9461  0.2035  0.1769
  655EMI    H1'12436   3.370   5.608   0.095  1.1227 -2.2789 -0.3078
  655EMI    H1'12437   3.410   5.775   0.162 -3.4442  0.0740  1.9432
  655EMI    H1'12438   3.382   5.631   0.273  3.9497 -0.9882  2.2286
  655EMI    C1"12439   2.841   5.734   0.212 -0.4521 -0.4205  0.0597
  655EMI    H1"12440   2.791   5.791   0.144  1.3581  0.7833  3.0089
  655EMI    H1"12441   2.831   5.782   0.308 -1.8499 -0.5233  0.9774
  655EMI    C2"12442   2.781   5.591   0.221 -0.2787  0.0587  0.1244
  655EMI    H2"12443   2.845   5.525   0.278 -1.0471 -0.2033  0.0813
  655EMI    H2"12444   2.684   5.605   0.264 -0.1475  1.5069 -0.4208
  655EMI    H2"12445   2.776   5.547   0.124  2.7917  0.4307 -2.4616
  656EMI     N112446   4.237   3.891   4.860  0.3225 -0.4229  0.0801
  656EMI     C212447   4.300   3.965   4.774 -0.6159  0.0654 -0.1027
  656EMI     N312448   4.299   3.911   4.652 -0.0802 -0.0748 -0.2576
  656EMI     C412449   4.240   3.785   4.665 -0.0815 -0.1767 -0.2838
  656EMI     C512450   4.197   3.776   4.796  0.1504  0.2010  0.0766
  656EMI     H212451   4.339   4.058   4.802 -1.9870  0.2938  0.7729
  656EMI     H412452   4.235   3.709   4.590 -2.5187 -4.1282  0.4335
  656EMI     H512453   4.153   3.687   4.841  2.0446 -2.8329  3.1541
  656EMI    C1'12454   4.382   3.947   4.539 -0.4423 -0.7493  1.0082
  656EMI    H1'12455   4.327   4.024   4.481  1.5739  0.1654 -0.4831
  656EMI    H1'12456   4.484   3.991   4.565 -0.4206  4.9934 -0.1975
  656EMI    H1'12457   4.405   3.855   4.479  1.5772  0.3090  0.8370
  656EMI    C1"12458   4.214   3.909   5.005 -0.3263 -0.3818 -0.3738
  656EMI    H1"12459   4.116   3.872   5.031  0.4525  1.6291 -2.2245
  656EMI    H1"12460   4.234   4.012   5.023  2.4347 -1.2640 -1.6023
  656EMI    C2"12461   4.321   3.838   5.086  0.2398  0.2400  0.6213
  656EMI    H2"12462   4.284   3.736   5.089 -1.4172 -1.2608 -0.8817
  656EMI    H2"12463   4.414   3.852   5.042 -1.6169 -0.2117 -0.6819
  656EMI    H2"12464   4.329   3.876   5.190 -1.0288  1.7798  1.3996
  657EMI     N112465   5.417   0.647   0.787  0.0012 -0.4499  0.0159
  657EMI     C212466   5.351   0.534   0.783 -0.6345 -0.1618 -0.3674
  657EMI     N312467   5.276   0.531   0.672  0.8239  0.2261  0.8189
  657EMI     C412468   5.282   0.652   0.610  0.8252 -0.2546 -0.2252
  657EMI     C512469   5.377   0.722   0.673 -0.4619 -0.2007  0.6810
  657EMI     H212470   5.365   0.450   0.849  1.3577  2.3677  1.3190
  657EMI     H412471   5.225   0.675   0.518  0.1248 -2.1187  0.7453
  657EMI     H512472   5.405   0.827   0.650  0.6880 -2.0621 -1.6754
  657EMI    C1'12473   5.195   0.425   0.619 -0.6490  0.0885 -0.5898
  657EMI    H1'12474   5.148   0.363   0.702 -0.1740 -0.2043 -1.9119
  657EMI    H1'12475   5.116   0.474   0.561 -1.9981 -1.1411  0.0682
  657EMI    H1'12476   5.255   0.362   0.554  1.3485  0.3137 -1.5969
  657EMI    C1"12477   5.515   0.700   0.889  0.2958 -0.3077  0.1943
  657EMI    H1"12478   5.537   0.797   0.864  2.0230 -0.2703  2.4355
  657EMI    H1"12479   5.618   0.652   0.878  0.8685  1.2152  0.3764
  657EMI    C2"12480   5.458   0.701   1.029  0.2319  0.8079 -0.0022
  657EMI    H2"12481   5.510   0.776   1.094  1.3091  1.2792 -1.6362
  657EMI    H2"12482   5.354   0.737   1.017  1.1093 -0.3587 -0.6039
  657EMI    H2"12483   5.464   0.602   1.078  3.3780 -2.4848 -2.3373
  658EMI     N112484   6.027   0.596   2.661  0.1455  0.5559  0.3979
  658EMI     C212485   6.001   0.589   2.794  0.0271 -0.5906 -0.1428
  658EMI     N312486   5.874   0.561   2.819  0.2735 -0.4715  0.4230
  658EMI     C412487   5.822   0.524   2.693 -0.2161  0.9121 -0.3478
  658EMI     C512488   5.918   0.553   2.601  0.0049  0.2705 -0.5872
  658EMI     H212489   6.075   0.617   2.864 -1.2212  0.6755  0.8545
  658EMI     H412490   5.727   0.481   2.684  0.9524 -0.5222  1.0719
  658EMI     H512491   5.900   0.544   2.492  1.5151  1.6616 -2.5459
  658EMI    C1'12492   5.820   0.542   2.959 -0.2155 -0.1004  1.1520
  658EMI    H1'12493   5.856   0.453   2.997 -0.9579  1.7157 -2.3746
  658EMI    H1'12494   5.863   0.623   3.010  0.6207 -1.4453 -0.3346
  658EMI    H1'12495   5.713   0.545   2.973  0.1786  0.4675  1.2835
  658EMI    C1"12496   6.148   0.624   2.571  0.4333  0.0250 -0.3469
  658EMI    H1"12497   6.134   0.720   2.521  0.5957  0.2093 -0.6226
  658EMI    H1"12498   6.153   0.543   2.497 -1.5092  3.0623 -2.0946
  658EMI    C2"12499   6.270   0.628   2.658 -0.5647  0.4763 -0.5323
  658EMI    H2"12500   6.286   0.543   2.718 -1.0089  1.3878  1.6092
  658EMI    H2"12501   6.354   0.636   2.588  1.4560  1.0380  0.1852
  658EMI    H2"12502   6.270   0.725   2.720 -0.5325  0.3093  1.8145
  659EMI     N112503   0.756   2.167   4.956 -0.3319 -0.3476  0.7933
  659EMI     C212504   0.860   2.078   4.975  0.0360 -0.2610 -0.1295
  659EMI     N312505   0.823   1.957   4.935  0.1636  0.3288 -0.1777
  659EMI     C412506   0.692   1.965   4.905 -0.9890  0.3105 -0.3491
  659EMI     C512507   0.649   2.095   4.905  0.4753 -0.5388  0.2876
  659EMI     H212508   0.955   2.106   5.006 -2.8170 -0.0457 -0.7941
  659EMI     H412509   0.629   1.884   4.869  1.0475  1.3864 -0.1334
  659EMI     H512510   0.548   2.128   4.876  0.3391  3.2248 -1.0555
  659EMI    C1'12511   0.897   1.828   4.928  0.4970  0.3584  0.0312
  659EMI    H1'12512   0.828   1.746   4.919  1.3060 -0.8606 -3.2841
  659EMI    H1'12513   0.953   1.840   4.835  0.7209 -2.4720  2.2213
  659EMI    H1'12514   0.968   1.821   5.010 -0.8234  1.7132 -4.0502
  659EMI    C1"12515   0.751   2.312   4.971 -0.2432  0.7774  0.4236
  659EMI    H1"12516   0.798   2.353   5.066 -1.2490  2.8625 -2.3151
  659EMI    H1"12517   0.651   2.349   4.968  0.1470  0.2516 -1.0830
  659EMI    C2"12518   0.831   2.375   4.857 -0.7323  0.1334 -0.3756
  659EMI    H2"12519   0.934   2.344   4.855 -2.3652 -3.8006 -0.1900
  659EMI    H2"12520   0.786   2.359   4.764  4.9190 -0.6426  0.4569
  659EMI    H2"12521   0.823   2.477   4.876  0.4645 -0.9602 -0.8312
  660EMI     N112522   0.570   6.339   4.862 -0.1452  0.2076 -0.2160
  660EMI     C212523   0.438   6.341   4.854 -0.4472 -0.6467  0.0866
  660EMI     N312524   0.387   6.329   4.978  0.0897  0.1965  0.8589
  660EMI     C412525   0.497   6.321   5.070 -0.0470 -1.1943  0.3396
  660EMI     C512526   0.611   6.329   4.995 -0.1647 -0.0821 -0.7301
  660EMI     H212527   0.380   6.357   4.767  0.3481 -2.0323 -0.9292
  660EMI     H412528   0.487   6.317   5.175 -0.0916  0.3824 -3.5693
  660EMI     H512529   0.716   6.335   5.038  2.2083  0.5527 -0.2264
  660EMI    C1'12530   0.247   6.343   5.017  0.3867 -0.0337  0.0853
  660EMI    H1'12531   0.253   6.318   5.124 -1.0128 -3.5823 -0.2218
  660EMI    H1'12532   0.207   6.441   5.006 -1.6516 -1.0852 -0.0833
  660EMI    H1'12533   0.186   6.260   4.975 -1.6447  1.2845 -0.5926
  660EMI    C1"12534   0.668   6.376   4.757 -0.0209  0.2318 -0.0321
  660EMI    H1"12535   0.635   6.332   4.661 -1.9040 -0.7478 -0.2362
  660EMI    H1"12536   0.763   6.328   4.784  1.4508  0.6176 -1.3216
  660EMI    C2"12537   0.691   6.525   4.748 -0.1675  0.3191  0.5110
  660EMI    H2"12538   0.773   6.557   4.690 -2.3798 -0.9650  0.6354
  660EMI    H2"12539   0.602   6.573   4.708 -0.1777 -1.3856  0.1494
  660EMI    H2"12540   0.716   6.559   4.848  1.7535 -1.8187 -2.3840
  661EMI     N112541   4.758   3.892   1.157  0.1719 -0.8022 -0.3471
  661EMI     C212542   4.639   3.917   1.208  0.7602  0.3250  0.1616
  661EMI     N312543   4.631   4.030   1.275 -0.7671 -0.7495 -0.5665
  661EMI     C412544   4.761   4.077   1.269  0.5694  0.0708 -0.0849
  661EMI     C512545   4.839   4.000   1.190  0.0345  0.6975  0.5538
  661EMI     H212546   4.563   3.843   1.197 -0.6012 -0.5469  0.7173
  661EMI     H412547   4.791   4.163   1.329 -0.2561 -0.6582  0.0497
  661EMI     H512548   4.944   4.003   1.168 -1.1638 -2.4201 -0.0022
  661EMI    C1'12549   4.522   4.084   1.362  0.2347 -0.8599 -0.5477
  661EMI    H1'12550   4.427   4.027   1.349 -2.1122 -2.6303 -0.7144
  661EMI    H1'12551   4.550   4.084   1.468 -1.5944 -0.3956  1.2840
  661EMI    H1'12552   4.492   4.191   1.345 -0.9523  1.4302  2.0152
  661EMI    C1"12553   4.809   3.769   1.102 -0.6394  0.0964  0.0754
  661EMI    H1"12554   4.729   3.700   1.095  1.1825  0.7849  1.8034
  661EMI    H1"12555   4.895   3.745   1.164 -0.9975  0.6223  0.0034
  661EMI    C2"12556   4.857   3.781   0.956 -0.3353 -0.5714  0.2635
  661EMI    H2"12557   4.901   3.687   0.925  1.9881 -0.1974  1.0665
  661EMI    H2"12558   4.766   3.801   0.894  0.1461  1.4935 -0.5326
  661EMI    H2"12559   4.932   3.856   0.944 -1.1765  2.1191 -3.5510
  662EMI     N112560   4.432   5.690   3.508  0.1541 -0.2877  0.2017
  662EMI     C212561   4.532   5.645   3.434 -0.1030  0.1035  0.1261
  662EMI     N312562   4.620   5.579   3.507 -0.7831  0.0187  0.0256
  662EMI     C412563   4.580   5.593   3.641  0.6507  0.9078 -0.4872
  662EMI     C512564   4.460   5.654   3.639  0.2192  0.3377  0.2579
  662EMI     H212565   4.528   5.640   3.329  0.4875 -1.2775  1.8317
  662EMI     H412566   4.639   5.551   3.720 -0.4383 -0.4337  0.6596
  662EMI     H512567   4.403   5.685   3.727  2.1876  0.8145  0.0398
  662EMI    C1'12568   4.740   5.494   3.478 -0.9661  0.0141 -0.2074
  662EMI    H1'12569   4.702   5.397   3.450 -2.6528 -0.2481 -0.0692
  662EMI    H1'12570   4.798   5.544   3.402  1.1239 -0.3907 -1.5167
  662EMI    H1'12571   4.804   5.502   3.572  0.9767  0.0367  0.0854
  662EMI    C1"12572   4.319   5.770   3.464 -0.1309 -0.8173  0.4511
  662EMI    H1"12573   4.264   5.807   3.552  2.3581  2.3498  2.9529
  662EMI    H1"12574   4.254   5.705   3.409  1.1878  0.7142 -0.6056
  662EMI    C2"12575   4.346   5.895   3.377  0.1059  0.3089  0.3577
  662EMI    H2"12576   4.250   5.930   3.360  0.0386 -2.7499 -0.3187
  662EMI    H2"12577   4.401   5.968   3.435  0.1400  0.8939 -0.6411
  662EMI    H2"12578   4.396   5.872   3.294  0.1702 -2.5597  0.2453
  663EMI     N112579   5.397   0.401   2.732  0.2734  0.7969  0.9006
  663EMI     C212580   5.414   0.518   2.794 -0.4934 -0.2148 -0.0963
  663EMI     N312581   5.298   0.565   2.843 -0.7951  0.2501 -0.5637
  663EMI     C412582   5.204   0.471   2.818  0.3384  0.4145  0.0039
  663EMI     C512583   5.264   0.368   2.746  0.9651 -0.7585 -1.1572
  663EMI     H212584   5.508   0.575   2.796  0.1306  1.2112 -0.6687
  663EMI     H412585   5.103   0.482   2.846  1.3940 -0.5291  0.1536
  663EMI     H512586   5.212   0.283   2.699 -1.3821 -0.9869 -1.5379
  663EMI    C1'12587   5.266   0.694   2.908 -0.4731 -0.0529  0.1581
  663EMI    H1'12588   5.313   0.763   2.846 -0.9288 -0.9068  1.1334
  663EMI    H1'12589   5.161   0.721   2.908 -1.9540 -0.1228 -1.1342
  663EMI    H1'12590   5.310   0.700   3.004 -0.2092  1.1752 -1.0613
  663EMI    C1"12591   5.499   0.305   2.681  0.2867  1.0693  0.8994
  663EMI    H1"12592   5.455   0.207   2.689  0.9465  2.1583 -0.0543
  663EMI    H1"12593   5.586   0.314   2.741  2.0567  1.3374  1.4512
  663EMI    C2"12594   5.547   0.333   2.539  0.4310  0.4747  0.4039
  663EMI    H2"12595   5.605   0.426   2.534  0.6824  0.3395  3.2531
  663EMI    H2"12596   5.614   0.256   2.507 -1.6807  3.5212  2.5030
  663EMI    H2"12597   5.470   0.332   2.466 -0.5510  0.3311 -1.5089
  664EMI     N112598   4.043   4.721   3.750  0.1185  0.1668  0.5100
  664EMI     C212599   3.985   4.628   3.667 -0.2634 -0.4287  0.0738
  664EMI     N312600   3.882   4.567   3.725 -0.2549 -0.6731  1.0760
  664EMI     C412601   3.867   4.632   3.849 -0.3866 -0.2816  0.1942
  664EMI     C512602   3.969   4.723   3.866 -0.1914  0.8732 -0.6664
  664EMI     H212603   4.027   4.600   3.572 -2.7472 -0.0577 -0.8406
  664EMI     H412604   3.779   4.616   3.914  0.7212  2.3052  0.1254
  664EMI     H512605   3.978   4.791   3.952 -1.3302  0.3559 -0.3327
  664EMI    C1'12606   3.795   4.450   3.684 -0.1070  0.5190  0.0382
  664EMI    H1'12607   3.735   4.428   3.773 -0.6720 -2.4447 -1.7830
  664EMI    H1'12608   3.746   4.475   3.590  3.1104 -1.8061 -5.2862
  664EMI    H1'12609   3.859   4.365   3.661  0.5165 -0.4624  0.5974
  664EMI    C1"12610   4.159   4.809   3.744 -0.0329  0.0376  0.0798
  664EMI    H1"12611   4.247   4.756   3.775  1.0847 -1.9440 -0.2619
  664EMI    H1"12612   4.119   4.884   3.814 -1.1414 -1.0643 -2.0467
  664EMI    C2"12613   4.175   4.864   3.602 -0.6972  0.0619  0.3798
  664EMI    H2"12614   4.180   4.785   3.529 -1.3917  1.2944 -0.9662
  664EMI    H2"12615   4.091   4.929   3.569 -0.7000  2.7047 -1.2769
  664EMI    H2"12616   4.271   4.924   3.599  1.1986  0.0376  1.0498
  665EMI     N112617   5.690   5.154   5.416 -0.2101 -0.4574 -0.4502
  665EMI     C212618   5.616   5.045   5.450 -0.1967 -0.9944 -0.7194
  665EMI     N312619   5.698   4.936   5.480 -0.4351 -0.3616  0.5679
  665EMI     C412620   5.822   4.986   5.459 -0.4754  0.3077 -0.2293
  665EMI     C512621   5.818   5.115   5.422  0.1257  0.0885  0.4656
  665EMI     H212622   5.506   5.042   5.431 -3.1872 -0.3482  1.2302
  665EMI     H412623   5.912   4.930   5.476 -1.6279 -0.9355  0.8643
  665EMI     H512624   5.908   5.181   5.401  0.9130 -0.3203  1.1654
  665EMI    C1'12625   5.664   4.806   5.541 -0.0013  0.2753 -0.3760
  665EMI    H1'12626   5.575   4.817   5.607 -2.4394 -0.0898 -0.2321
  665EMI    H1'12627   5.634   4.736   5.461  1.5908 -2.2253  0.2526
  665EMI    H1'12628   5.736   4.760   5.607  0.4153  0.9657  0.2001
  665EMI    C1"12629   5.654   5.297   5.399 -0.2890 -0.5134 -0.0185
  665EMI    H1"12630   5.641   5.322   5.291 -2.8471  1.5419 -0.1632
  665EMI    H1"12631   5.736   5.359   5.442  1.7171  0.1108 -1.1436
  665EMI    C2"12632   5.531   5.332   5.469  0.3401  0.4732 -0.2839
  665EMI    H2"12633   5.505   5.432   5.467 -0.0269  0.1067 -1.4967
  665EMI    H2"12634   5.446   5.276   5.428 -0.3191 -1.0476 -1.9287
  665EMI    H2"12635   5.538   5.290   5.572 -2.3465  1.6459 -0.4819
  666EMI     N112636   3.309   5.904   3.638 -0.2416 -0.4307 -0.3222
  666EMI     C212637   3.400   5.951   3.728  0.8549  0.0837  0.8565
  666EMI     N312638   3.439   5.856   3.808 -0.4368  0.4181 -0.1500
  666EMI     C412639   3.370   5.741   3.773 -0.9604  0.2544  0.2118
  666EMI     C512640   3.290   5.770   3.667 -0.2241  0.3557  0.6748
  666EMI     H212641   3.436   6.054   3.717  0.6373  0.4141 -1.6425
  666EMI     H412642   3.377   5.650   3.836 -0.8039 -0.9095 -0.1867
  666EMI     H512643   3.226   5.695   3.614 -0.3228 -4.7003 -0.3954
  666EMI    C1'12644   3.559   5.853   3.891  0.4445  0.3182  0.6600
  666EMI    H1'12645   3.563   5.767   3.955 -0.3070 -1.4584  0.7221
  666EMI    H1'12646   3.648   5.852   3.827 -0.7871  3.2824  0.3737
  666EMI    H1'12647   3.568   5.945   3.944  3.1365 -1.0548 -0.5663
  666EMI    C1"12648   3.235   5.984   3.534  0.0678  0.1178 -0.3912
  666EMI    H1"12649   3.145   6.029   3.583  0.5489  0.9212 -0.3661
  666EMI    H1"12650   3.202   5.915   3.447  0.1888 -0.8060 -1.4003
  666EMI    C2"12651   3.316   6.093   3.472 -0.2692 -0.0710 -0.3701
  666EMI    H2"12652   3.333   6.171   3.551 -1.2978  2.3424  1.0566
  666EMI    H2"12653   3.412   6.055   3.431  0.8091  1.7455  1.0119
  666EMI    H2"12654   3.265   6.137   3.392  0.8639 -2.3492 -1.1681
  667EMI     N112655   4.883   6.024   1.400 -0.5674  0.2607 -0.0093
  667EMI     C212656   4.980   6.112   1.379 -0.0543  0.2890 -0.1210
  667EMI     N312657   4.943   6.185   1.275  0.2049 -0.1682 -0.4705
  667EMI     C412658   4.827   6.137   1.224 -1.2743  0.2716 -0.9753
  667EMI     C512659   4.784   6.042   1.306  0.0421 -0.0262  0.5923
  667EMI     H212660   5.071   6.133   1.435 -0.5152 -1.8735  0.3524
  667EMI     H412661   4.767   6.179   1.154  0.2358 -0.3024 -0.4945
  667EMI     H512662   4.690   5.987   1.300  1.8036  1.7218 -0.8789
  667EMI    C1'12663   5.010   6.301   1.205 -0.2819 -0.7225  0.8366
  667EMI    H1'12664   5.054   6.263   1.120 -4.1100 -0.6218  0.2354
  667EMI    H1'12665   4.934   6.364   1.158  0.9233 -2.5027 -1.5238
  667EMI    H1'12666   5.065   6.372   1.263  1.7320  0.0964 -1.2081
  667EMI    C1"12667   4.877   5.923   1.503  0.2164 -0.3006 -0.3350
  667EMI    H1"12668   4.904   5.834   1.447 -0.4164 -0.6871  1.4022
  667EMI    H1"12669   4.777   5.903   1.551 -1.2955 -0.4670  0.2249
  667EMI    C2"12670   4.978   5.937   1.619 -0.4313 -0.7539 -0.2462
  667EMI    H2"12671   4.972   5.850   1.690  0.8721 -1.5110 -1.7513
  667EMI    H2"12672   5.078   5.942   1.579  0.9670 -0.1367 -1.2652
  667EMI    H2"12673   4.952   6.029   1.666 -0.9428 -0.3105 -0.3983
  668EMI     N112674   3.928   2.012   1.365  0.4185  0.7219 -0.1566
  668EMI     C212675   3.818   2.081   1.407 -0.4300  0.3299 -0.0661
  668EMI     N312676   3.791   2.041   1.531  0.2301 -0.0208 -0.2352
  668EMI     C412677   3.886   1.945   1.565  0.3019 -0.2260 -0.4448
  668EMI     C512678   3.972   1.931   1.463 -0.1196 -0.1415  0.1880
  668EMI     H212679   3.764   2.167   1.365 -1.6819  0.4167  2.0377
  668EMI     H412680   3.899   1.904   1.669  0.4331  1.9393  0.7852
  668EMI     H512681   4.062   1.867   1.460  0.2451 -0.4536  3.5627
  668EMI    C1'12682   3.694   2.099   1.620  0.5289 -0.0684 -0.0815
  668EMI    H1'12683   3.695   2.209   1.637 -3.0227 -1.4167 -1.8885
  668EMI    H1'12684   3.594   2.075   1.576  0.7070 -2.6025  1.7705
  668EMI    H1'12685   3.691   2.043   1.718  1.1811 -0.4669  1.1598
  668EMI    C1"12686   3.996   2.016   1.236 -0.0796  0.6550  0.1514
  668EMI    H1"12687   3.928   2.057   1.161 -2.3011  1.2708  0.8146
  668EMI    H1"12688   4.032   1.918   1.222  0.4869  2.3601  1.9737
  668EMI    C2"12689   4.124   2.104   1.231 -0.2406 -0.2712  0.1486
  668EMI    H2"12690   4.110   2.202   1.277  1.1856 -1.8836 -1.6347
  668EMI    H2"12691   4.205   2.057   1.288 -0.3766 -2.6725  0.8360
  668EMI    H2"12692   4.153   2.111   1.131  0.1745  1.6956  0.0013
  669EMI     N112693   3.853   0.542   3.112  0.1052  0.2025 -0.6666
  669EMI     C212694   3.744   0.615   3.136 -0.0572  0.9977 -0.3321
  669EMI     N312695   3.731   0.642   3.270 -0.2548  0.0828 -0.6525
  669EMI     C412696   3.846   0.591   3.334  0.4121  0.0984  0.7318
  669EMI     C512697   3.919   0.535   3.234 -0.0871  0.0378  0.6788
  669EMI     H212698   3.661   0.645   3.070 -1.5198  1.0780  0.9615
  669EMI     H412699   3.878   0.600   3.437  0.1929  0.2940 -1.9535
  669EMI     H512700   4.020   0.493   3.250 -2.8336  2.1079 -1.5394
  669EMI    C1'12701   3.623   0.701   3.349  0.1433 -0.4583 -0.3130
  669EMI    H1'12702   3.667   0.788   3.408  0.0897 -0.9746  0.4972
  669EMI    H1'12703   3.550   0.726   3.270  2.7625  1.4276 -0.5981
  669EMI    H1'12704   3.587   0.620   3.408 -1.3943 -1.8229 -2.1794
  669EMI    C1"12705   3.905   0.485   2.989 -0.0533  0.5731 -0.1026
  669EMI    H1"12706   3.816   0.434   2.947 -2.6777 -2.7129  1.4845
  669EMI    H1"12707   3.985   0.414   3.015  0.3620 -0.2534  1.1822
  669EMI    C2"12708   3.954   0.583   2.893 -0.0119  0.2692 -0.5625
  669EMI    H2"12709   3.987   0.529   2.806 -0.9895 -0.8871  0.9753
  669EMI    H2"12710   3.874   0.651   2.863  0.4253  3.2651  0.0318
  669EMI    H2"12711   4.046   0.637   2.929 -0.7213  0.7953 -0.5413
  670EMI     N112712   1.966   4.293   5.792  0.3585 -0.6022  0.2237
  670EMI     C212713   1.940   4.285   5.660  0.7261 -0.3094  0.8439
  670EMI     N312714   1.879   4.398   5.620  0.4640  0.6806  0.0243
  670EMI     C412715   1.892   4.487   5.722 -0.1926 -0.6897  0.2957
  670EMI     C512716   1.930   4.419   5.829  0.4158 -0.4263  0.1197
  670EMI     H212717   1.947   4.208   5.587 -2.3694  1.9111 -1.1372
  670EMI     H412718   1.864   4.596   5.722  0.6210  0.7504 -0.9921
  670EMI     H512719   1.947   4.460   5.928 -0.6805 -1.6426  1.9189
  670EMI    C1'12720   1.840   4.434   5.490  1.0267 -0.2597  0.1290
  670EMI    H1'12721   1.828   4.346   5.440 -1.2966  3.7522 -0.0985
  670EMI    H1'12722   1.742   4.488   5.491 -0.0046  0.3115  2.3858
  670EMI    H1'12723   1.917   4.497   5.445  1.4671  1.3241 -0.7070
  670EMI    C1"12724   2.045   4.202   5.884  0.0267 -0.4731 -0.6614
  670EMI    H1"12725   2.090   4.259   5.964 -1.7009 -1.3298  2.0580
  670EMI    H1"12726   2.115   4.140   5.828 -0.4949 -0.4634  1.4909
  670EMI    C2"12727   1.945   4.112   5.969  0.4409  0.3500  0.1098
  670EMI    H2"12728   2.004   4.071   6.053 -0.3422 -0.9354 -0.5613
  670EMI    H2"12729   1.863   4.169   6.003  0.4115  1.8684 -2.2836
  670EMI    H2"12730   1.910   4.030   5.900 -0.7865 -1.5917 -1.9711
  671EMI     N112731   6.075   2.920   1.616 -0.0191  0.2580 -0.4405
  671EMI     C212732   6.074   3.013   1.518  0.0233  0.1626 -0.2310
  671EMI     N312733   5.945   3.033   1.477 -0.1287  0.2681  0.9296
  671EMI     C412734   5.865   2.949   1.551 -0.0723 -0.1105 -0.6067
  671EMI     C512735   5.942   2.882   1.637 -0.7142  0.7273  0.7153
  671EMI     H212736   6.157   3.073   1.491 -0.0434 -0.9283 -0.2811
  671EMI     H412737   5.756   2.945   1.534 -2.1818  2.1585  1.0976
  671EMI     H512738   5.903   2.807   1.709  1.2614  0.9856  0.5161
  671EMI    C1'12739   5.894   3.138   1.389 -0.2837 -0.0031  0.7689
  671EMI    H1'12740   5.966   3.174   1.316  0.0689  0.6165  0.3005
  671EMI    H1'12741   5.808   3.101   1.335 -3.8085  1.0349  1.3460
  671EMI    H1'12742   5.878   3.224   1.458  1.2927 -0.4214 -0.6891
  671EMI    C1"12743   6.188   2.848   1.682 -0.5884 -0.4979  0.1200
  671EMI    H1"12744   6.153   2.770   1.747 -2.7208  1.4968  0.6079
  671EMI    H1"12745   6.242   2.917   1.748  0.3294 -0.4091 -0.7045
  671EMI    C2"12746   6.268   2.785   1.571  0.3132  0.1714 -0.0190
  671EMI    H2"12747   6.323   2.858   1.523 -1.7295  0.0750  0.1008
  671EMI    H2"12748   6.340   2.719   1.626  1.5949 -0.5076  1.2083
  671EMI    H2"12749   6.208   2.715   1.505 -2.2069 -0.2857  0.7705
  672EMI     N112750   1.436   4.787   1.337  0.2362 -0.4771 -0.2491
  672EMI     C212751   1.357   4.797   1.451 -0.3206 -0.7686 -0.0105
  672EMI     N312752   1.352   4.927   1.483  0.0438 -0.0986  0.1393
  672EMI     C412753   1.431   5.000   1.393  0.3042  0.0507  0.1358
  672EMI     C512754   1.478   4.914   1.301  0.0850  0.4498 -0.0011
  672EMI     H212755   1.292   4.722   1.497 -1.4750 -0.2500 -0.8302
  672EMI     H412756   1.450   5.108   1.404  0.3621  1.1315 -1.8930
  672EMI     H512757   1.549   4.940   1.218  2.4073 -2.1880  1.0990
  672EMI    C1'12758   1.284   4.989   1.599  0.2093 -0.7106 -0.4408
  672EMI    H1'12759   1.358   5.049   1.649  1.1914  0.0344  0.5098
  672EMI    H1'12760   1.207   5.055   1.562  0.6768 -0.5794 -1.3639
  672EMI    H1'12761   1.232   4.913   1.660 -1.5163  0.7619  0.4332
  672EMI    C1"12762   1.465   4.665   1.252  0.0960  0.2254  0.4248
  672EMI    H1"12763   1.554   4.684   1.187  1.1210  0.2297 -3.2219
  672EMI    H1"12764   1.373   4.647   1.195  0.6175 -1.0893 -0.1333
  672EMI    C2"12765   1.490   4.545   1.341 -0.0040  0.2607 -0.6969
  672EMI    H2"12766   1.405   4.519   1.402 -0.0568  1.2976  3.4112
  672EMI    H2"12767   1.501   4.444   1.292 -1.6826  1.3516 -2.1085
  672EMI    H2"12768   1.573   4.562   1.413 -0.5390  2.0037  0.1239
  673EMI     N112769   2.587   1.240   5.557 -0.4752 -0.2411 -0.4471
  673EMI     C212770   2.538   1.215   5.439  0.6939 -0.2889  0.0055
  673EMI     N312771   2.633   1.248   5.348  0.4199 -0.1326 -0.7908
  673EMI     C412772   2.750   1.279   5.415 -0.2509  0.1606 -0.1847
  673EMI     C512773   2.721   1.282   5.546 -0.7655  0.1158  0.0549
  673EMI     H212774   2.427   1.188   5.414  0.7156 -0.6643 -0.4432
  673EMI     H412775   2.847   1.316   5.370  3.5291  0.7656  0.8669
  673EMI     H512776   2.787   1.322   5.617 -0.9567 -0.3481 -1.9156
  673EMI    C1'12777   2.630   1.235   5.203  0.2445 -0.4582  1.1207
  673EMI    H1'12778   2.541   1.272   5.163 -0.7868 -1.2347  1.1615
  673EMI    H1'12779   2.709   1.309   5.166  4.5304  1.3031  0.7672
  673EMI    H1'12780   2.651   1.130   5.179 -1.0373  0.6389  0.0270
  673EMI    C1"12781   2.525   1.230   5.687  0.7072 -0.0529  0.3498
  673EMI    H1"12782   2.588   1.194   5.765 -1.0066  2.6320  1.9322
  673EMI    H1"12783   2.438   1.174   5.666 -0.0466 -1.1308  0.4703
  673EMI    C2"12784   2.487   1.368   5.755 -0.1320 -0.4063  0.7558
  673EMI    H2"12785   2.573   1.426   5.783  0.8928 -1.6451 -0.4947
  673EMI    H2"12786   2.437   1.423   5.679  0.5800  0.2658 -1.6216
  673EMI    H2"12787   2.414   1.354   5.841  0.4837  2.4850  0.2042
  674EMI     N112788   1.675   4.612   3.807  1.2046  0.5092  0.0571
  674EMI     C212789   1.803   4.596   3.763  0.4062 -0.2594  0.6519
  674EMI     N312790   1.876   4.540   3.857 -0.1761 -0.5439  0.3843
  674EMI     C412791   1.798   4.527   3.967 -0.7087 -0.1678  0.0334
  674EMI     C512792   1.674   4.566   3.936 -0.4149 -0.1320 -0.5404
  674EMI     H212793   1.841   4.639   3.666 -1.9042  3.1483 -0.8648
  674EMI     H412794   1.830   4.484   4.060 -2.9577  1.3273  1.0538
  674EMI     H512795   1.585   4.572   4.006 -2.0881 -0.7283  0.6004
  674EMI    C1'12796   2.017   4.491   3.869 -0.3269 -0.2414  1.0972
  674EMI    H1'12797   2.073   4.563   3.798  1.1353  2.4981 -2.2707
  674EMI    H1'12798   2.058   4.495   3.971 -0.1817 -2.0506  2.9796
  674EMI    H1'12799   2.007   4.383   3.831  2.5212 -1.0990  0.9461
  674EMI    C1"12800   1.557   4.665   3.739  0.3252 -0.4012  0.0569
  674EMI    H1"12801   1.563   4.770   3.747 -1.2942 -1.5332 -1.0570
  674EMI    H1"12802   1.472   4.624   3.790  0.0226 -0.2738 -1.2813
  674EMI    C2"12803   1.555   4.626   3.592 -0.6211  0.4226  0.9722
  674EMI    H2"12804   1.633   4.686   3.549  1.9618  0.5651 -0.1419
  674EMI    H2"12805   1.566   4.525   3.577 -0.2864  0.7396 -0.4717
  674EMI    H2"12806   1.463   4.658   3.541 -0.4864  1.0998 -0.4968
  675EMI     N112807   4.457   0.171   2.683 -0.7329 -0.5046  0.3709
  675EMI     C212808   4.363   0.190   2.586  0.0214 -0.8141 -0.1961
  675EMI     N312809   4.260   0.265   2.627 -0.3167 -0.2711  0.2385
  675EMI     C412810   4.301   0.305   2.751 -0.0760 -0.6188  0.2113
  675EMI     C512811   4.416   0.243   2.785  0.3528  1.1273  0.3862
  675EMI     H212812   4.370   0.154   2.483 -1.9422  1.5250  0.8562
  675EMI     H412813   4.242   0.369   2.817  1.6352  0.5745 -1.3297
  675EMI     H512814   4.462   0.263   2.878  0.3148  0.9275  2.6120
  675EMI    C1'12815   4.140   0.314   2.561  0.4977  0.3489 -0.6009
  675EMI    H1'12816   4.115   0.411   2.606  0.6468 -2.2507  4.1842
  675EMI    H1'12817   4.157   0.314   2.454  0.7412  1.9191  1.1023
  675EMI    H1'12818   4.057   0.244   2.587 -0.8895 -1.3468  0.4191
  675EMI    C1"12819   4.582   0.090   2.680  0.9568 -0.5261  0.1030
  675EMI    H1"12820   4.617   0.096   2.787  1.2836 -0.2092 -0.2795
  675EMI    H1"12821   4.658   0.134   2.614 -1.0309 -0.1210  2.6534
  675EMI    C2"12822   4.547  -0.056   2.648 -0.1289 -0.2637 -0.3678
  675EMI    H2"12823   4.648  -0.111   2.641 -0.5862  2.4099 -2.0606
  675EMI    H2"12824   4.472  -0.098   2.722  0.1899  0.0714  0.7742
  675EMI    H2"12825   4.495  -0.065   2.557 -1.6667  1.5524  1.3328
  676EMI     N112826   0.499   0.083   1.260 -0.6786 -0.1985  0.5512
  676EMI     C212827   0.428   0.194   1.270 -0.2485  0.0196  1.5161
  676EMI     N312828   0.504   0.304   1.263 -0.0037 -0.0784  0.4321
  676EMI     C412829   0.637   0.261   1.251  0.1259  0.9374  0.3253
  676EMI     C512830   0.633   0.126   1.245 -1.5060 -0.0846 -0.4395
  676EMI     H212831   0.324   0.192   1.292 -0.9590 -1.8039 -2.0201
  676EMI     H412832   0.727   0.319   1.247 -0.7977 -0.7158  2.5345
  676EMI     H512833   0.718   0.065   1.239 -0.7929 -1.4274  3.3420
  676EMI    C1'12834   0.470   0.448   1.287 -0.0764  0.9781  0.4805
  676EMI    H1'12835   0.375   0.456   1.328 -1.6314 -2.3962 -0.7468
  676EMI    H1'12836   0.533   0.495   1.367  0.2919 -2.3329  0.1636
  676EMI    H1'12837   0.485   0.502   1.195 -1.0189  1.7053 -2.0008
  676EMI    C1"12838   0.462  -0.061   1.257  0.8376  0.0949  0.1861
  676EMI    H1"12839   0.544  -0.132   1.254  2.1906 -1.7299 -0.6198
  676EMI    H1"12840   0.404  -0.082   1.163 -0.1318  2.4784 -0.8823
  676EMI    C2"12841   0.366  -0.096   1.373 -0.1597 -0.2469 -0.0348
  676EMI    H2"12842   0.347  -0.201   1.373 -0.5834 -1.6883  0.1144
  676EMI    H2"12843   0.412  -0.078   1.472  1.1560 -0.2795 -0.2197
  676EMI    H2"12844   0.273  -0.039   1.368  2.0778  1.1302  0.1213
  677EMI     N112845   1.114   0.156   2.043 -0.1945  0.1372  0.2946
  677EMI     C212846   1.041   0.176   2.152  0.0122  0.5669 -0.3769
  677EMI     N312847   0.999   0.308   2.161  0.3286  0.2354  0.6820
  677EMI     C412848   1.064   0.370   2.056 -0.5413 -0.8676 -0.2318
  677EMI     C512849   1.134   0.277   1.989 -0.2363  0.3027 -0.0449
  677EMI     H212850   1.010   0.093   2.226 -0.1676  0.0255  3.8595
  677EMI     H412851   1.050   0.480   2.037  2.0550 -1.9767  3.0878
  677EMI     H512852   1.200   0.305   1.909 -1.3587  0.8346  1.7463
  677EMI    C1'12853   0.929   0.380   2.267 -0.0497  0.0640  0.1697
  677EMI    H1'12854   0.991   0.467   2.304 -1.9419 -0.6883 -0.9198
  677EMI    H1'12855   0.838   0.427   2.226  2.2419 -0.1130 -0.7715
  677EMI    H1'12856   0.900   0.317   2.345 -1.4187 -1.9353 -0.0718
  677EMI    C1"12857   1.185   0.028   1.996 -0.5367  0.0676  0.0060
  677EMI    H1"12858   1.144   0.008   1.897  1.3559  1.2299  0.9996
  677EMI    H1"12859   1.162  -0.062   2.063 -0.6509 -1.0192 -0.3265
  677EMI    C2"12860   1.338   0.047   1.993  0.3994 -0.6183  0.0199
  677EMI    H2"12861   1.368   0.148   1.953 -0.8406  3.1385 -1.1502
  677EMI    H2"12862   1.372   0.046   2.096 -0.4194  1.0016  0.6936
  677EMI    H2"12863   1.390  -0.029   1.932 -0.7631  0.4808  2.9002
  678EMI     N112864   2.197   4.284   2.232  0.4835 -0.2357  0.0584
  678EMI     C212865   2.231   4.384   2.150 -0.1992 -0.4592 -0.3175
  678EMI     N312866   2.334   4.456   2.196  0.3017  0.0093  0.2483
  678EMI     C412867   2.366   4.396   2.319 -0.1049  0.1883  0.1470
  678EMI     C512868   2.288   4.288   2.336 -0.5057 -0.2693  0.1887
  678EMI     H212869   2.184   4.397   2.051 -0.7293 -0.4824 -0.8493
  678EMI     H412870   2.453   4.420   2.374 -2.0047  0.5842 -0.7595
  678EMI     H512871   2.293   4.222   2.415  0.0916  2.4580  0.3048
  678EMI    C1'12872   2.404   4.574   2.142 -0.9194  0.2981  0.9228
  678EMI    H1'12873   2.502   4.549   2.124 -1.0969 -1.0096 -0.0501
  678EMI    H1'12874   2.363   4.605   2.047  1.2246  1.6813 -3.3429
  678EMI    H1'12875   2.401   4.660   2.200 -1.5749 -1.1300 -2.5016
  678EMI    C1"12876   2.105   4.175   2.209  0.2498 -0.0973 -0.0800
  678EMI    H1"12877   2.040   4.187   2.121 -0.3486 -1.6953  0.4686
  678EMI    H1"12878   2.040   4.182   2.291  0.1620 -0.1936  0.3957
  678EMI    C2"12879   2.171   4.036   2.190 -0.6111 -0.4245  0.3991
  678EMI    H2"12880   2.237   4.032   2.093 -3.0533  1.7098 -0.5756
  678EMI    H2"12881   2.214   4.011   2.278 -0.2296 -0.1199 -1.4412
  678EMI    H2"12882   2.093   3.974   2.156 -2.4235  1.0699 -0.9420
  679EMI     N112883   0.912   4.524   4.206  0.3182  0.1480  1.2623
  679EMI     C212884   0.783   4.554   4.231  0.6179  0.0971 -0.2616
  679EMI     N312885   0.730   4.630   4.137  0.4921  0.6568  0.3977
  679EMI     C412886   0.829   4.648   4.048  0.1805 -0.1638  0.2101
  679EMI     C512887   0.942   4.585   4.087 -0.1206 -0.6594  0.2400
  679EMI     H212888   0.734   4.524   4.319  0.6895 -0.5889 -0.7756
  679EMI     H412889   0.811   4.701   3.957 -2.3711 -0.2372 -2.2428
  679EMI     H512890   1.042   4.580   4.031  0.2560  3.7118 -1.3545
  679EMI    C1'12891   0.600   4.703   4.122 -0.0691 -0.4898  0.1391
  679EMI    H1'12892   0.525   4.626   4.100  1.8756 -0.1238  1.2789
  679EMI    H1'12893   0.589   4.751   4.221  0.9307 -2.1482  0.2221
  679EMI    H1'12894   0.614   4.763   4.032  3.1766 -0.1549 -1.1641
  679EMI    C1"12895   1.005   4.437   4.272  0.5804  0.4682  0.1434
  679EMI    H1"12896   1.049   4.380   4.194 -0.2021 -1.6735 -2.1744
  679EMI    H1"12897   0.950   4.380   4.341  1.9908  1.9200  0.8988
  679EMI    C2"12898   1.111   4.513   4.349 -0.2173 -0.0963  0.2860
  679EMI    H2"12899   1.186   4.445   4.373 -1.7944  1.9722  0.9399
  679EMI    H2"12900   1.151   4.586   4.283 -0.6744 -0.9197 -1.2727
  679EMI    H2"12901   1.068   4.556   4.439  0.0875 -3.2274  0.0983
  680EMI     N112902   4.233   3.992   3.730 -0.5247 -0.1558  0.2670
  680EMI     C212903   4.143   4.080   3.680 -0.0542  0.4391 -0.3004
  680EMI     N312904   4.199   4.195   3.670 -0.0046 -0.0468 -0.5595
  680EMI     C412905   4.336   4.185   3.699  0.7305 -0.7708  0.1624
  680EMI     C512906   4.353   4.059   3.736 -0.0775  0.4397  0.8138
  680EMI     H212907   4.041   4.047   3.665  0.2585  0.3764  2.3227
  680EMI     H412908   4.415   4.266   3.699  0.4608 -0.6810 -0.7025
  680EMI     H512909   4.446   4.024   3.769 -0.8762  1.6422 -0.2848
  680EMI    C1'12910   4.134   4.322   3.636  0.6508  0.1141 -0.0635
  680EMI    H1'12911   4.190   4.412   3.643  1.6418  0.5702 -2.4423
  680EMI    H1'12912   4.098   4.314   3.537 -1.3530  0.6862  0.3629
  680EMI    H1'12913   4.056   4.338   3.714  1.7186 -0.1198  4.2164
  680EMI    C1"12914   4.232   3.853   3.765 -0.6339  0.6306 -0.2296
  680EMI    H1"12915   4.325   3.819   3.796 -3.3290  1.7962 -0.3964
  680EMI    H1"12916   4.195   3.786   3.687  0.2015  0.9964  1.2239
  680EMI    C2"12917   4.121   3.838   3.869  0.1040 -0.7743 -0.0708
  680EMI    H2"12918   4.117   3.737   3.895  3.0111 -0.7484  0.0997
  680EMI    H2"12919   4.156   3.905   3.948  0.0154 -0.4252  2.5950
  680EMI    H2"12920   4.028   3.876   3.826 -1.8511 -0.9302 -0.4572
  681EMI     N112921   5.904   6.323   0.433  0.1490 -0.0172 -0.1704
  681EMI     C212922   5.956   6.406   0.525 -0.3788 -0.2667 -0.6084
  681EMI     N312923   5.891   6.396   0.639 -0.4726 -0.0974  0.4151
  681EMI     C412924   5.798   6.294   0.630 -0.2166  0.1082 -0.3048
  681EMI     C512925   5.808   6.256   0.498  0.0337 -0.2339 -1.1042
  681EMI     H212926   6.037   6.475   0.514  0.6841  2.0601  0.4458
  681EMI     H412927   5.738   6.237   0.704  1.3935  0.4270  0.8598
  681EMI     H512928   5.761   6.164   0.466  0.2881  1.4966 -0.3639
  681EMI    C1'12929   5.899   6.481   0.758 -0.2741  0.5566  0.6943
  681EMI    H1'12930   5.927   6.584   0.732 -1.2822 -2.0992  0.4091
  681EMI    H1'12931   5.806   6.482   0.813 -0.8503 -0.2753 -0.2859
  681EMI    H1'12932   5.978   6.444   0.829  1.0234  1.9113  0.9520
  681EMI    C1"12933   5.952   6.289   0.293  0.1749  0.5817  0.4173
  681EMI    H1"12934   5.999   6.377   0.251 -0.5173 -1.1367 -0.9952
  681EMI    H1"12935   5.865   6.263   0.226 -0.5694  0.6174 -1.8975
  681EMI    C2"12936   6.047   6.164   0.303 -0.2267 -0.5058  0.0114
  681EMI    H2"12937   6.067   6.128   0.203 -3.2971  2.2920  1.6376
  681EMI    H2"12938   6.137   6.180   0.358  0.0244 -1.9223 -0.3656
  681EMI    H2"12939   5.977   6.094   0.351  0.4240  3.5633 -1.4268
  682EMI     N112940   1.312   2.494   2.839 -0.3412  0.3144  0.3720
  682EMI     C212941   1.357   2.375   2.876 -0.5694 -1.3397  0.6151
  682EMI     N312942   1.487   2.383   2.908  0.1929 -0.0538  0.1784
  682EMI     C412943   1.531   2.513   2.887 -0.2850 -0.1687  0.2314
  682EMI     C512944   1.421   2.579   2.853  0.3394  0.0094 -0.2922
  682EMI     H212945   1.301   2.283   2.876 -0.5623 -0.5810  0.0836
  682EMI     H412946   1.629   2.552   2.900  0.3422  0.0922 -0.1142
  682EMI     H512947   1.416   2.683   2.837  1.1717 -0.0365 -0.1469
  682EMI    C1'12948   1.580   2.275   2.946  0.2977 -0.0260 -0.1713
  682EMI    H1'12949   1.604   2.214   2.862  0.2530  1.9002  2.2719
  682EMI    H1'12950   1.673   2.310   3.001  0.2639 -1.7256  2.1179
  682EMI    H1'12951   1.524   2.208   3.015  3.4341 -0.3626 -0.7584
  682EMI    C1"12952   1.184   2.546   2.802  0.1428  0.2118 -0.1256
  682EMI    H1"12953   1.171   2.536   2.700  1.1500  1.5682  0.6016
  682EMI    H1"12954   1.182   2.647   2.838 -2.4356  1.1000 -0.4071
  682EMI    C2"12955   1.072   2.468   2.868 -0.2630 -0.0947 -0.2489
  682EMI    H2"12956   0.970   2.521   2.857 -1.8275  0.6943  2.0935
  682EMI    H2"12957   1.066   2.368   2.825  0.8969  0.2982 -0.4888
  682EMI    H2"12958   1.086   2.455   2.980 -1.1746 -1.7679  1.4055
  683EMI     N112959   2.120   3.582   4.962  0.2215  0.4536  0.4855
  683EMI     C212960   2.005   3.659   4.950 -0.0677 -0.6640  0.0685
  683EMI     N312961   2.035   3.774   5.011  0.3591  0.2269 -0.1341
  683EMI     C412962   2.162   3.770   5.062  0.2811  0.1932  0.2955
  683EMI     C512963   2.215   3.651   5.033 -0.0514  0.6016  0.0569
  683EMI     H212964   1.918   3.628   4.904  0.3057  2.3972 -1.3415
  683EMI     H412965   2.221   3.840   5.124 -0.1029 -0.5437 -0.0148
  683EMI     H512966   2.311   3.613   5.077  0.6879 -0.2506  0.5755
  683EMI    C1'12967   1.951   3.891   5.022 -0.4173  1.2346  0.2937
  683EMI    H1'12968   2.013   3.976   5.006 -2.5096 -0.9695 -3.0633
  683EMI    H1'12969   1.862   3.888   4.955 -1.0979  0.6861 -0.4722
  683EMI    H1'12970   1.908   3.895   5.122 -0.2808 -1.5230  1.9622
  683EMI    C1"12971   2.157   3.462   4.892 -0.4838 -0.6948 -0.6711
  683EMI    H1"12972   2.228   3.400   4.950 -1.2125  0.1492 -1.3517
  683EMI    H1"12973   2.220   3.488   4.807  0.0739  1.9775 -0.8568
  683EMI    C2"12974   2.038   3.378   4.840 -0.0233 -0.4948 -0.0257
  683EMI    H2"12975   2.077   3.299   4.790  2.0262 -0.7918  0.9592
  683EMI    H2"12976   1.995   3.332   4.926  2.3816 -1.0234 -1.8530
  683EMI    H2"12977   1.964   3.433   4.783 -0.4958  1.4039 -1.7415
  684EMI     N112978   5.317   3.846   5.977 -0.2203  0.6835  0.1685
  684EMI     C212979   5.186   3.867   5.967 -0.2574  0.0705  0.0624
  684EMI     N312980   5.125   3.752   5.955 -0.3440  0.2133 -0.1652
  684EMI     C412981   5.220   3.649   5.954  0.0485 -0.0668 -0.3714
  684EMI     C512982   5.338   3.712   5.959  0.3103 -0.1815 -0.6642
  684EMI     H212983   5.132   3.961   5.978 -2.7801 -0.2452 -2.7685
  684EMI     H412984   5.188   3.549   5.953  0.4764 -2.4869  0.1121
  684EMI     H512985   5.434   3.665   5.974 -0.9344  1.2242 -0.3421
  684EMI    C1'12986   4.983   3.722   5.941  0.8214  0.9059 -0.1860
  684EMI    H1'12987   4.975   3.627   5.896 -0.9158  0.3936  2.4230
  684EMI    H1'12988   4.930   3.717   6.035 -1.3716 -0.8155 -0.0807
  684EMI    H1'12989   4.946   3.800   5.874  1.7071 -2.5238 -0.0910
  684EMI    C1"12990   5.432   3.935   5.993 -0.6013  0.8270  0.1012
  684EMI    H1"12991   5.427   4.014   5.917 -1.9250 -0.6894 -2.8328
  684EMI    H1"12992   5.520   3.880   5.973  0.4293  1.5687 -1.4733
  684EMI    C2"12993   5.445   3.997   6.134 -0.0242  0.4435  0.1568
  684EMI    H2"12994   5.532   4.057   6.151 -1.1542  0.4256 -0.1387
  684EMI    H2"12995   5.351   4.054   6.149 -0.1111 -2.6600 -1.6070
  684EMI    H2"12996   5.450   3.908   6.197 -1.6556 -3.2501 -0.8090
  685EMI     N112997   1.153   3.353   4.157 -0.0714  0.5107 -0.8392
  685EMI     C212998   1.170   3.238   4.090 -0.0019  0.1263 -0.5471
  685EMI     N312999   1.243   3.254   3.981 -0.0043 -0.3909 -0.1422
  685EMI     C413000   1.276   3.385   3.979 -0.3696 -0.1478  0.6527
  685EMI     C513001   1.220   3.451   4.083 -0.0613  0.1260 -0.3101
  685EMI     H213002   1.139   3.141   4.126  1.1289  0.5610 -1.8176
  685EMI     H413003   1.338   3.429   3.900  1.6563  2.2719  2.0454
  685EMI     H513004   1.221   3.554   4.097 -1.5047 -0.5545  1.6788
  685EMI    C1'13005   1.291   3.159   3.881 -0.6240  0.0931  0.0002
  685EMI    H1'13006   1.340   3.079   3.929  0.7124  0.1128  0.1493
  685EMI    H1'13007   1.205   3.134   3.819  1.6304  0.2424 -0.2985
  685EMI    H1'13008   1.364   3.218   3.825  0.9531  2.6788  2.4859
  685EMI    C1"13009   1.067   3.387   4.273 -0.4780 -0.5284 -0.1155
  685EMI    H1"13010   1.117   3.453   4.338 -1.1039 -2.3309 -1.9548
  685EMI    H1"13011   1.043   3.296   4.326 -0.7218 -1.6594 -1.1072
  685EMI    C2"13012   0.939   3.451   4.219 -0.5744 -0.2964 -0.1052
  685EMI    H2"13013   0.856   3.419   4.287 -0.7156 -0.4908  2.3380
  685EMI    H2"13014   0.947   3.559   4.213  0.4963  2.5000 -0.1015
  685EMI    H2"13015   0.921   3.404   4.124 -1.4902 -1.7022  2.8686
  686EMI     N113016   0.954   4.569   4.945  0.6465 -0.3778 -0.1138
  686EMI     C213017   0.909   4.491   4.848 -0.3404 -0.3171  0.4527
  686EMI     N313018   0.878   4.549   4.735  0.4630  0.4545  0.6241
  686EMI     C413019   0.892   4.683   4.758  0.3002  0.3618  0.3065
  686EMI     C513020   0.942   4.692   4.885 -0.3266  0.1100 -0.4519
  686EMI     H213021   0.908   4.383   4.860 -1.0627  1.3074 -0.5785
  686EMI     H413022   0.886   4.762   4.685 -0.2329  1.4061 -0.2932
  686EMI     H513023   0.976   4.787   4.922  1.7593 -0.2799  0.5369
  686EMI    C1'13024   0.828   4.491   4.613  1.1626 -0.0450  0.1360
  686EMI    H1'13025   0.733   4.441   4.621  0.5951  0.3602 -1.0359
  686EMI    H1'13026   0.807   4.569   4.540  0.1370  0.3948 -0.4255
  686EMI    H1'13027   0.912   4.428   4.589 -1.1654  1.0993 -0.1327
  686EMI    C1"13028   1.030   4.541   5.069  0.4406  0.4137 -0.8872
  686EMI    H1"13029   0.978   4.455   5.107 -1.5441 -0.3706 -2.2103
  686EMI    H1"13030   1.014   4.627   5.135  2.1185 -1.2919 -0.8836
  686EMI    C2"13031   1.175   4.523   5.056 -0.2813 -0.6134  0.3347
  686EMI    H2"13032   1.199   4.425   5.005 -0.3283 -2.0849 -1.8258
  686EMI    H2"13033   1.217   4.597   4.989  0.4184  1.2752 -0.5469
  686EMI    H2"13034   1.233   4.528   5.150  1.0731  0.3475 -2.5214
  687EMI     N113035   0.906   5.463   5.465  0.0832 -0.5028 -0.0013
  687EMI     C213036   0.873   5.591   5.487 -0.0276  0.3227  0.4105
  687EMI     N313037   0.935   5.666   5.395 -0.4665  0.2518 -0.1354
  687EMI     C413038   1.021   5.592   5.320  0.4283  0.4107 -0.1425
  687EMI     C513039   1.001   5.463   5.360  0.2206 -0.2887 -0.3818
  687EMI     H213040   0.791   5.624   5.548  0.8614  1.1505  1.9961
  687EMI     H413041   1.091   5.618   5.240  0.7755 -2.7920  0.8960
  687EMI     H513042   1.058   5.381   5.323 -4.6268  0.1192  1.6339
  687EMI    C1'13043   0.937   5.808   5.374  0.1783 -0.1159 -0.6879
  687EMI    H1'13044   0.890   5.844   5.284 -1.7012  2.3711  3.1271
  687EMI    H1'13045   0.872   5.838   5.458  2.4538 -0.2201  0.5426
  687EMI    H1'13046   1.035   5.860   5.394  3.0455  1.0351 -1.2996
  687EMI    C1"13047   0.858   5.346   5.542 -0.3058  0.0139 -0.1468
  687EMI    H1"13048   0.787   5.381   5.614 -1.9679 -1.0367  3.1995
  687EMI    H1"13049   0.937   5.282   5.586 -0.5934 -0.8450  2.1519
  687EMI    C2"13050   0.771   5.264   5.446 -0.3009 -0.2343  0.0861
  687EMI    H2"13051   0.816   5.237   5.356 -0.4280 -0.2548 -0.2658
  687EMI    H2"13052   0.740   5.174   5.499  2.8178  0.0815  3.7897
  687EMI    H2"13053   0.682   5.322   5.417  0.6437  1.8653  0.4189
  688EMI     N113054   5.535   4.629   5.157 -0.0740 -0.3018  0.3374
  688EMI     C213055   5.454   4.571   5.247 -0.0358 -0.5512 -0.0058
  688EMI     N313056   5.388   4.468   5.189  0.3027  0.2793 -0.9515
  688EMI     C413057   5.413   4.469   5.056  0.8789 -0.1514 -0.2287
  688EMI     C513058   5.500   4.567   5.038  0.4974 -0.3760 -0.8183
  688EMI     H213059   5.455   4.592   5.355  0.8378 -0.2091  0.7929
  688EMI     H413060   5.365   4.417   4.982  2.6987 -0.3936  3.0579
  688EMI     H513061   5.537   4.599   4.938  0.7682  2.0223  0.3412
  688EMI    C1'13062   5.322   4.356   5.262 -0.1606 -0.0817  1.0135
  688EMI    H1'13063   5.320   4.281   5.183 -2.3151 -1.5296  0.5743
  688EMI    H1'13064   5.380   4.328   5.350  0.0636  2.7881  2.6990
  688EMI    H1'13065   5.216   4.376   5.278  2.8178 -0.3407  1.7347
  688EMI    C1"13066   5.627   4.738   5.167 -0.1728 -0.3469 -0.0796
  688EMI    H1"13067   5.581   4.800   5.248 -0.1179  2.2743  1.0312
  688EMI    H1"13068   5.626   4.787   5.072  1.4609 -0.0828  0.8670
  688EMI    C2"13069   5.773   4.698   5.200 -0.2616 -0.1025  0.3629
  688EMI    H2"13070   5.812   4.637   5.117  1.8923 -2.0085 -0.8647
  688EMI    H2"13071   5.836   4.788   5.214 -0.2178  1.7983  1.1366
  688EMI    H2"13072   5.780   4.636   5.288  0.6979 -0.7366 -2.7880
  689EMI     N113073   4.370   1.246   4.949  0.4284  0.8507  0.0560
  689EMI     C213074   4.282   1.175   5.025 -0.2716 -0.8870  0.1141
  689EMI     N313075   4.344   1.080   5.094 -0.0035  0.0152 -0.2321
  689EMI     C413076   4.480   1.094   5.069 -0.1551  0.0430 -0.0990
  689EMI     C513077   4.494   1.198   4.984 -0.7172 -0.0200  0.0680
  689EMI     H213078   4.184   1.201   5.019  1.6935 -1.2846 -2.1536
  689EMI     H413079   4.554   1.028   5.118  0.9900 -1.3161  0.8195
  689EMI     H513080   4.595   1.226   4.938  0.1688 -0.9940  0.8662
  689EMI    C1'13081   4.282   0.989   5.184  0.0311 -0.7660 -0.4747
  689EMI    H1'13082   4.185   0.960   5.146 -1.4377 -0.6971  0.0147
  689EMI    H1'13083   4.349   0.913   5.209  0.2977  4.8063  0.1876
  689EMI    H1'13084   4.262   1.044   5.277 -1.6627  0.0186 -1.9442
  689EMI    C1"13085   4.340   1.351   4.852 -0.1396  0.3657 -0.1741
  689EMI    H1"13086   4.291   1.298   4.770 -1.9679 -0.1073  3.5320
  689EMI    H1"13087   4.434   1.387   4.810 -1.8557  2.7510  0.8863
  689EMI    C2"13088   4.263   1.471   4.909  0.7935  0.7379  0.1738
  689EMI    H2"13089   4.213   1.521   4.823  2.3631 -0.8257 -2.8004
  689EMI    H2"13090   4.197   1.440   4.988  1.8286  0.2834  1.3014
  689EMI    H2"13091   4.340   1.542   4.957 -1.0124  1.5401  0.9913
  690EMI     N113092   2.270   1.754   3.750  0.0105 -0.2675  0.7024
  690EMI     C213093   2.375   1.675   3.713 -1.1743 -0.3334 -0.3804
  690EMI     N313094   2.335   1.550   3.703 -0.3460 -0.3153 -0.2143
  690EMI     C413095   2.204   1.547   3.725 -0.1619 -0.2899  0.3676
  690EMI     C513096   2.158   1.673   3.749 -0.2377 -0.6577  0.7801
  690EMI     H213097   2.480   1.713   3.711 -1.4888  4.3629  3.5338
  690EMI     H413098   2.143   1.456   3.734 -0.8632  1.1925  3.2173
  690EMI     H513099   2.057   1.710   3.790 -2.3896 -0.0118  1.0960
  690EMI    C1'13100   2.409   1.426   3.682 -0.3924  0.2074  0.2516
  690EMI    H1'13101   2.364   1.338   3.721 -0.4284 -1.6502 -0.5917
  690EMI    H1'13102   2.415   1.421   3.568  1.2352 -0.1789  0.2709
  690EMI    H1'13103   2.517   1.435   3.716  4.2766 -0.1507 -2.0487
  690EMI    C1"13104   2.250   1.901   3.771 -0.9736  0.5319 -0.2635
  690EMI    H1"13105   2.331   1.948   3.823 -0.3157  0.4332  1.4638
  690EMI    H1"13106   2.169   1.917   3.840  0.3730  2.0723 -1.6755
  690EMI    C2"13107   2.224   1.966   3.635  0.4003  0.0200 -1.0191
  690EMI    H2"13108   2.304   1.947   3.559 -1.6051  1.0800 -0.5952
  690EMI    H2"13109   2.135   1.920   3.586  0.5188 -0.9052  0.2212
  690EMI    H2"13110   2.225   2.078   3.658 -0.9447 -0.6976  0.4996
  691EMI     N113111   0.534   3.741   0.205  0.3107 -0.0745  0.4489
  691EMI     C213112   0.574   3.867   0.182 -0.5120 -0.0178  0.5292
  691EMI     N313113   0.598   3.885   0.053  0.1546  0.3015 -0.0004
  691EMI     C413114   0.569   3.768  -0.006  0.6756  0.0731 -0.1823
  691EMI     C513115   0.531   3.676   0.085  0.3655  0.2380  0.6025
  691EMI     H213116   0.584   3.941   0.255  0.9978 -1.1077  0.0210
  691EMI     H413117   0.577   3.761  -0.116  3.2297  0.2166 -2.1831
  691EMI     H513118   0.488   3.580   0.055  2.8373  0.4717  0.9650
  691EMI    C1'13119   0.668   3.998  -0.009  0.3600 -0.9660 -0.0397
  691EMI    H1'13120   0.649   4.091   0.049 -0.0479  0.4665 -0.2056
  691EMI    H1'13121   0.778   3.982  -0.019  3.6275  2.0753 -0.2989
  691EMI    H1'13122   0.630   4.025  -0.103  0.6049 -0.0912 -1.8399
  691EMI    C1"13123   0.486   3.681   0.332  0.9662  0.0097  0.2580
  691EMI    H1"13124   0.545   3.711   0.416 -2.8141 -1.5076  0.3456
  691EMI    H1"13125   0.480   3.568   0.320 -0.7992 -0.0466 -0.5783
  691EMI    C2"13126   0.346   3.721   0.363 -0.0844 -0.4419  0.4129
  691EMI    H2"13127   0.313   3.639   0.425  0.9766  2.5357  0.8435
  691EMI    H2"13128   0.340   3.813   0.422  0.7274  0.3887 -0.3410
  691EMI    H2"13129   0.293   3.725   0.271 -0.2234  3.4827 -1.7142
  692EMI     N113130   3.824   5.618   0.142  0.3659 -0.8808 -0.0684
  692EMI     C213131   3.924   5.607   0.055  0.0181  0.1233  0.3438
  692EMI     N313132   4.009   5.509   0.092 -0.0369  0.9459 -0.2029
  692EMI     C413133   3.956   5.455   0.201 -0.4179 -0.2854 -0.1863
  692EMI     C513134   3.835   5.510   0.222  0.5882  0.0419 -0.4786
  692EMI     H213135   3.942   5.680  -0.019  0.5001 -0.8215  0.7106
  692EMI     H413136   3.994   5.366   0.248  0.1687 -1.3899  1.4815
  692EMI     H513137   3.749   5.483   0.290  0.0277  0.4132  1.8434
  692EMI    C1'13138   4.135   5.463   0.034 -0.4711  0.3377  0.8086
  692EMI    H1'13139   4.211   5.448   0.106  0.3738 -0.6194 -1.3727
  692EMI    H1'13140   4.114   5.373  -0.030 -1.2158 -0.9409 -0.8985
  692EMI    H1'13141   4.158   5.556  -0.024 -0.7677  1.7138 -2.6317
  692EMI    C1"13142   3.724   5.726   0.143 -0.0087 -0.9965 -0.5161
  692EMI    H1"13143   3.626   5.689   0.120 -0.6866  0.5649  0.7671
  692EMI    H1"13144   3.745   5.807   0.077 -1.7075 -0.9462 -3.1340
  692EMI    C2"13145   3.728   5.788   0.280 -0.7360 -0.1644  0.3095
  692EMI    H2"13146   3.828   5.828   0.292 -0.6839 -0.5272 -4.3239
  692EMI    H2"13147   3.662   5.876   0.283  1.3345 -0.5709 -0.3179
  692EMI    H2"13148   3.699   5.724   0.358  0.0793  2.0715 -0.6000
  693EMI     N113149   0.637   5.847   4.925  0.2112 -0.0051 -0.2009
  693EMI     C213150   0.674   5.896   5.046  0.4163 -0.5061 -0.2980
  693EMI     N313151   0.580   5.859   5.144  0.6682 -0.6648  0.4505
  693EMI     C413152   0.483   5.794   5.075 -0.4279  0.3449  0.5086
  693EMI     C513153   0.524   5.774   4.945  0.1265  0.4572 -0.0244
  693EMI     H213154   0.747   5.975   5.061  0.7929  1.9285 -0.8800
  693EMI     H413155   0.386   5.778   5.117 -1.3670  0.0467 -0.3372
  693EMI     H513156   0.475   5.729   4.861  2.8889  1.9573  1.6410
  693EMI    C1'13157   0.557   5.920   5.275  0.6816  0.3282 -0.2921
  693EMI    H1'13158   0.640   5.984   5.300  1.3190 -1.2694 -1.3534
  693EMI    H1'13159   0.470   5.980   5.260  0.6379  0.4989  0.6750
  693EMI    H1'13160   0.519   5.850   5.351  0.2552 -1.1962 -0.2031
  693EMI    C1"13161   0.690   5.875   4.791 -0.6700  0.2641 -1.3808
  693EMI    H1"13162   0.620   5.850   4.714  0.4392  0.4078  0.3752
  693EMI    H1"13163   0.775   5.804   4.781  1.8893 -2.7622 -1.8654
  693EMI    C2"13164   0.757   6.016   4.781  0.1962  0.1575 -0.3346
  693EMI    H2"13165   0.670   6.082   4.796 -0.3254 -0.9359  0.9075
  693EMI    H2"13166   0.832   6.040   4.856 -2.6392  2.4019 -0.3019
  693EMI    H2"13167   0.794   6.025   4.674 -1.3694 -3.0469  0.5036
  694EMI     N113168   1.816   3.912   1.047 -0.1213  0.1131 -0.5076
  694EMI     C213169   1.696   3.955   1.008 -0.5874 -0.3727 -0.2118
  694EMI     N313170   1.710   4.039   0.903  0.3208  0.7770 -0.6680
  694EMI     C413171   1.840   4.039   0.872  0.1620 -0.1931  0.2933
  694EMI     C513172   1.908   3.963   0.962 -0.5146 -0.1987  0.6658
  694EMI     H213173   1.598   3.927   1.057 -1.9235 -1.4880  1.3554
  694EMI     H413174   1.882   4.113   0.794  0.7467  1.3536 -1.1286
  694EMI     H513175   2.016   3.947   0.956  0.2473 -0.1637 -0.5811
  694EMI    C1'13176   1.617   4.131   0.841 -0.3571 -0.6797  0.6175
  694EMI    H1'13177   1.647   4.157   0.737  0.4795 -0.4096 -1.5009
  694EMI    H1'13178   1.515   4.091   0.831  0.6854  0.4970 -1.2510
  694EMI    H1'13179   1.606   4.229   0.899  0.7142 -0.1086  1.0915
  694EMI    C1"13180   1.843   3.820   1.164  0.1669  0.7621  1.1254
  694EMI    H1"13181   1.753   3.777   1.184  1.9282  2.4335 -3.3935
  694EMI    H1"13182   1.869   3.875   1.257  1.3239 -0.2089  1.5778
  694EMI    C2"13183   1.946   3.708   1.145  0.0315  0.2612  0.9356
  694EMI    H2"13184   1.908   3.633   1.077  0.9461  0.3577 -1.2071
  694EMI    H2"13185   2.042   3.753   1.105 -1.9652 -0.1542  1.2316
  694EMI    H2"13186   1.969   3.654   1.231  0.8748 -0.8569  0.8780
  695EMI     N113187   2.189   2.425   5.305 -0.4952 -0.4282  0.2570
  695EMI     C213188   2.183   2.299   5.260 -0.2934 -0.1038 -0.9931
  695EMI     N313189   2.120   2.215   5.346 -0.3506 -0.3653 -0.4614
  695EMI     C413190   2.079   2.295   5.453  0.2658  0.1170 -0.2918
  695EMI     C513191   2.119   2.422   5.428 -0.2795  0.5966  0.5753
  695EMI     H213192   2.219   2.266   5.160 -0.6299  1.3371 -1.3207
  695EMI     H413193   2.014   2.263   5.532  0.3383 -0.8427  0.4201
  695EMI     H513194   2.088   2.507   5.487  0.9218  1.2170  0.0640
  695EMI    C1'13195   2.099   2.072   5.338  0.3905 -0.6391  0.4738
  695EMI    H1'13196   2.190   2.018   5.359  1.8271 -0.0289 -0.7899
  695EMI    H1'13197   2.024   2.048   5.406  0.2833 -0.7522 -0.9659
  695EMI    H1'13198   2.063   2.051   5.243  0.4296  0.9133  0.7008
  695EMI    C1"13199   2.248   2.547   5.238  1.0906 -0.4537 -0.1956
  695EMI    H1"13200   2.184   2.632   5.255  0.3897  2.8777  0.2606
  695EMI    H1"13201   2.252   2.533   5.134 -1.4323 -2.1194  1.0581
  695EMI    C2"13202   2.394   2.556   5.289  0.0687 -0.5487 -0.6202
  695EMI    H2"13203   2.441   2.641   5.241 -0.0702 -0.5244  0.9772
  695EMI    H2"13204   2.400   2.580   5.401 -1.7251  1.4163  0.7000
  695EMI    H2"13205   2.445   2.467   5.258  0.2669  0.4669 -0.6346
  696EMI     N113206   0.307   0.734   0.980  0.3636  0.3310 -0.1737
  696EMI     C213207   0.245   0.656   0.894  0.3288  0.0634 -0.1246
  696EMI     N313208   0.171   0.562   0.955 -0.6332  0.8181 -0.3183
  696EMI     C413209   0.175   0.589   1.089  0.0975  0.3947 -0.1746
  696EMI     C513210   0.260   0.693   1.105  0.1234  0.3163 -0.4616
  696EMI     H213211   0.283   0.654   0.786 -1.5712 -2.7412 -0.2365
  696EMI     H413212   0.119   0.531   1.155 -2.8296  1.1264 -1.0508
  696EMI     H513213   0.289   0.734   1.205 -0.8456  0.6134 -0.8611
  696EMI    C1'13214   0.112   0.435   0.903 -0.0651 -0.0719 -0.3506
  696EMI    H1'13215   0.004   0.457   0.883  0.5433  0.3719  2.0557
  696EMI    H1'13216   0.168   0.412   0.814 -1.4173  2.1000 -1.8525
  696EMI    H1'13217   0.122   0.345   0.968  1.0357 -1.3973 -1.7955
  696EMI    C1"13218   0.404   0.842   0.950  0.1211  0.3555  0.3390
  696EMI    H1"13219   0.455   0.819   0.858  0.6395 -3.5637 -1.2597
  696EMI    H1"13220   0.474   0.847   1.034  0.9156  3.2812 -0.4927
  696EMI    C2"13221   0.339   0.981   0.940  0.3648 -1.0519  0.7367
  696EMI    H2"13222   0.251   0.972   0.880  2.8753 -0.9070  3.6223
  696EMI    H2"13223   0.312   1.016   1.039 -2.9976 -0.5320  4.0764
  696EMI    H2"13224   0.403   1.063   0.901  1.4749  3.4289 -1.8942
  697EMI     N113225   3.761   0.401   1.922  0.3056  0.1133  0.0894
  697EMI     C213226   3.802   0.445   2.038  0.1150  0.4488 -0.2661
  697EMI     N313227   3.927   0.393   2.061 -0.3468 -0.6303 -0.2982
  697EMI     C413228   3.967   0.327   1.957 -0.1733  0.0487 -0.2136
  697EMI     C513229   3.867   0.331   1.865 -0.3165  0.8410  0.1690
  697EMI     H213230   3.754   0.520   2.097 -0.2067  1.7090  1.4672
  697EMI     H413231   4.056   0.274   1.946  0.5097 -0.8919  1.4091
  697EMI     H513232   3.874   0.277   1.772  2.4495 -2.9637  0.8405
  697EMI    C1'13233   4.001   0.394   2.192 -0.2662  0.6770  0.1418
  697EMI    H1'13234   3.937   0.354   2.267 -0.2517 -0.7491 -0.5446
  697EMI    H1'13235   4.078   0.323   2.168  1.1682  4.6459  2.8798
  697EMI    H1'13236   4.033   0.496   2.223  0.4122  0.2359 -0.7227
  697EMI    C1"13237   3.633   0.432   1.854  0.0571  0.3471  0.3218
  697EMI    H1"13238   3.547   0.423   1.923  1.3955 -0.2130  0.6279
  697EMI    H1"13239   3.610   0.358   1.777 -1.9658 -1.3516 -1.5300
  697EMI    C2"13240   3.642   0.578   1.808 -0.4487  0.3222 -0.1533
  697EMI    H2"13241   3.734   0.589   1.747  0.7887 -1.1792 -0.5782
  697EMI    H2"13242   3.550   0.601   1.752  0.9927 -1.0254  1.5853
  697EMI    H2"13243   3.651   0.649   1.889 -0.4434 -0.0355  0.0279
  698EMI     N113244   4.388   1.582   3.040 -0.0541  0.3204  0.3280
  698EMI     C213245   4.381   1.445   3.043 -0.0938  0.4224 -0.1566
  698EMI     N313246   4.252   1.408   3.059  0.5644 -0.9480 -0.1470
  698EMI     C413247   4.175   1.517   3.065 -0.2776 -0.4482 -0.8866
  698EMI     C513248   4.256   1.626   3.057  0.2860 -0.0302  0.2104
  698EMI     H213249   4.469   1.386   3.040  0.6419  1.0759 -0.3517
  698EMI     H413250   4.062   1.522   3.069 -1.7939 -0.4384  2.0845
  698EMI     H513251   4.226   1.729   3.060  0.2531 -0.8022  0.3997
  698EMI    C1'13252   4.194   1.277   3.088 -0.3575  0.4464 -0.2671
  698EMI    H1'13253   4.268   1.199   3.087  1.3764 -0.0317 -0.3497
  698EMI    H1'13254   4.159   1.283   3.197 -2.7743  1.7702  0.9510
  698EMI    H1'13255   4.109   1.242   3.026 -1.7612 -3.6753  2.7965
  698EMI    C1"13256   4.502   1.674   3.059  0.5560  0.7457 -0.0508
  698EMI    H1"13257   4.558   1.633   3.139  0.8045  1.9341 -0.0604
  698EMI    H1"13258   4.463   1.768   3.099  1.4994  0.3975  0.0593
  698EMI    C2"13259   4.591   1.689   2.937 -0.2939  0.1052 -0.0139
  698EMI    H2"13260   4.674   1.757   2.957 -0.9931  0.0296  0.7596
  698EMI    H2"13261   4.625   1.593   2.909  2.8199 -2.6743  1.6931
  698EMI    H2"13262   4.530   1.740   2.862  1.7520  3.0800 -0.1647
  699EMI     N113263   0.819   6.304   3.734  0.5760  0.1405  0.4224
  699EMI     C213264   0.848   6.435   3.724 -0.5265 -0.3904 -0.2251
  699EMI     N313265   0.948   6.467   3.809  0.1132  0.2012  0.6910
  699EMI     C413266   0.969   6.354   3.885  0.1331  0.2563  0.1632
  699EMI     C513267   0.889   6.256   3.842 -0.2002 -0.7381  0.1676
  699EMI     H213268   0.791   6.502   3.654  0.2844 -0.9553 -0.4849
  699EMI     H413269   1.041   6.349   3.966  1.3316 -2.7379  0.0810
  699EMI     H513270   0.883   6.157   3.886 -0.4211 -2.6360  0.1276
  699EMI    C1'13271   1.015   6.592   3.845  0.1007 -0.8731  0.1628
  699EMI    H1'13272   1.114   6.571   3.812  1.8964 -0.3296  1.3192
  699EMI    H1'13273   0.968   6.675   3.794  0.2772  0.7727  1.5377
  699EMI    H1'13274   1.021   6.594   3.956 -0.0105  1.0387 -1.6739
  699EMI    C1"13275   0.709   6.232   3.658  0.3644  0.0994 -0.1932
  699EMI    H1"13276   0.710   6.121   3.637 -1.2771 -1.9082 -0.2632
  699EMI    H1"13277   0.704   6.266   3.554 -1.6409  1.0576 -0.3358
  699EMI    C2"13278   0.576   6.257   3.726 -0.5789  0.2945 -0.2409
  699EMI    H2"13279   0.554   6.187   3.809  0.5313 -0.9617 -0.2593
  699EMI    H2"13280   0.565   6.362   3.755  1.3263  1.8826 -0.1936
  699EMI    H2"13281   0.493   6.242   3.654  1.8725 -1.0679  0.8317
  700EMI     N113282   1.108   0.739   5.625  0.0258 -0.6963  0.3729
  700EMI     C213283   1.231   0.716   5.658 -0.0496 -0.0202  0.3037
  700EMI     N313284   1.312   0.708   5.549  0.0148  0.5540  0.5356
  700EMI     C413285   1.233   0.730   5.437 -0.6306 -0.4727  0.1461
  700EMI     C513286   1.107   0.757   5.488 -0.9805  0.0082  0.4051
  700EMI     H213287   1.258   0.712   5.760 -3.5790  1.6070 -0.6942
  700EMI     H413288   1.266   0.728   5.333 -1.2938  2.8876 -2.0270
  700EMI     H513289   1.022   0.779   5.427  1.8580 -1.6656 -2.0517
  700EMI    C1'13290   1.459   0.687   5.540 -0.3397 -0.0004 -0.1435
  700EMI    H1'13291   1.479   0.622   5.629 -0.7098  1.1113  1.3587
  700EMI    H1'13292   1.475   0.637   5.442  0.0023  0.5264 -0.2660
  700EMI    H1'13293   1.518   0.781   5.535  0.1706 -0.6104  0.7355
  700EMI    C1"13294   0.990   0.750   5.707 -0.1119 -0.1053 -0.1705
  700EMI    H1"13295   1.027   0.781   5.804 -1.4545 -0.2879 -0.6321
  700EMI    H1"13296   0.949   0.647   5.719  0.7814 -0.6632  0.8270
  700EMI    C2"13297   0.876   0.838   5.646 -0.3973 -0.2973 -1.0877
  700EMI    H2"13298   0.840   0.791   5.559  1.0730  2.8728  0.3966
  700EMI    H2"13299   0.804   0.841   5.722  0.1535  1.3687 -3.0832
  700EMI    H2"13300   0.910   0.943   5.619  1.5946  0.6894 -2.1280
  701EMI     N113301   1.909   2.872   4.359  0.0655 -0.0314  0.4426
  701EMI     C213302   1.794   2.877   4.428 -0.6531  0.4014 -0.7447
  701EMI     N313303   1.757   2.753   4.465 -0.3572 -0.3926 -0.4858
  701EMI     C413304   1.853   2.665   4.424  0.3844  0.0678  0.4419
  701EMI     C513305   1.945   2.739   4.356  0.4823  0.1025 -1.0384
  701EMI     H213306   1.742   2.972   4.440 -0.9487  0.2289 -0.6658
  701EMI     H413307   1.844   2.558   4.441  1.8906 -2.4395 -0.3265
  701EMI     H513308   2.026   2.695   4.305  0.0651  0.0358 -1.3517
  701EMI    C1'13309   1.614   2.721   4.495 -0.3295 -0.5357  0.3278
  701EMI    H1'13310   1.579   2.636   4.445 -1.3904  0.2786 -0.7588
  701EMI    H1'13311   1.611   2.693   4.604  0.7640  1.2391  0.2996
  701EMI    H1'13312   1.548   2.804   4.483 -1.0603 -1.2971  1.9328
  701EMI    C1"13313   1.985   2.972   4.281 -1.2938  1.2100  0.0073
  701EMI    H1"13314   2.080   2.923   4.253  0.3091  0.4514 -0.7895
  701EMI    H1"13315   2.006   3.055   4.352  2.1259  0.7740  0.3260
  701EMI    C2"13316   1.911   3.033   4.160  0.0751 -0.0943 -0.1798
  701EMI    H2"13317   1.819   3.088   4.189 -3.1115  1.9626 -1.7714
  701EMI    H2"13318   1.975   3.095   4.104 -1.0002 -1.7970  2.6186
  701EMI    H2"13319   1.884   2.953   4.090  1.0289 -0.6197 -0.3956
  702EMI     N113320   4.870   0.405   0.833 -0.0239 -0.6332  0.1229
  702EMI     C213321   4.846   0.274   0.873  0.3949 -0.2543 -0.2352
  702EMI     N313322   4.833   0.193   0.768 -0.2834  0.1952 -0.1199
  702EMI     C413323   4.835   0.275   0.656 -0.0832  0.7736 -0.8596
  702EMI     C513324   4.866   0.397   0.693 -0.5355  0.6332  0.6123
  702EMI     H213325   4.842   0.247   0.976  0.4006  0.1631  0.6961
  702EMI     H413326   4.814   0.238   0.546  0.4394 -2.2945  0.7526
  702EMI     H513327   4.864   0.485   0.623  0.5739  5.3957 -4.2582
  702EMI    C1'13328   4.821   0.050   0.758  0.4939  0.7472 -0.4414
  702EMI    H1'13329   4.817   0.024   0.651 -0.8405  3.0429  1.2171
  702EMI    H1'13330   4.899   0.003   0.811  1.1190 -0.5349 -0.2442
  702EMI    H1'13331   4.731   0.025   0.814 -0.9190 -1.4523 -3.2653
  702EMI    C1"13332   4.886   0.532   0.908  0.8722 -0.3311  0.1931
  702EMI    H1"13333   4.863   0.510   1.011  1.3011 -1.7069  1.1411
  702EMI    H1"13334   4.816   0.603   0.864 -1.9849  2.6912 -1.3788
  702EMI    C2"13335   5.024   0.581   0.906 -0.2007 -0.1491  0.3810
  702EMI    H2"13336   5.031   0.666   0.976  1.0430 -2.6731 -0.7105
  702EMI    H2"13337   5.110   0.513   0.930  1.5405 -0.5558  0.0316
  702EMI    H2"13338   5.048   0.621   0.804  1.3493 -0.2796 -2.1565
  703EMI     N113339   2.993   5.505   0.570 -0.4596 -0.0803  1.1197
  703EMI     C213340   2.905   5.407   0.552  0.0279 -0.0980  0.1455
  703EMI     N313341   2.780   5.451   0.545 -0.8542  0.2563  0.3096
  703EMI     C413342   2.792   5.581   0.579 -0.1078 -0.5813 -0.2586
  703EMI     C513343   2.922   5.617   0.593 -0.0887 -0.4644  1.3261
  703EMI     H213344   2.925   5.301   0.562 -1.7290  0.6875  1.0930
  703EMI     H413345   2.716   5.652   0.582  0.5391  0.8199 -2.5441
  703EMI     H513346   2.959   5.718   0.609 -0.8554  0.0564 -1.2612
  703EMI    C1'13347   2.650   5.377   0.529 -0.5989  0.4549  0.3263
  703EMI    H1'13348   2.571   5.425   0.584 -2.0138  0.2352  1.5908
  703EMI    H1'13349   2.625   5.372   0.428  0.4576  0.2756 -0.4544
  703EMI    H1'13350   2.652   5.268   0.558 -0.4291 -1.8663 -0.1080
  703EMI    C1"13351   3.134   5.494   0.575 -0.4944 -0.1293 -0.8670
  703EMI    H1"13352   3.175   5.592   0.578 -1.2919 -0.1166  0.3816
  703EMI    H1"13353   3.167   5.438   0.488 -0.4298 -0.5393 -1.3128
  703EMI    C2"13354   3.162   5.401   0.693 -0.0583 -0.6014  0.2236
  703EMI    H2"13355   3.130   5.295   0.675 -1.0591 -0.4510 -0.9942
  703EMI    H2"13356   3.271   5.402   0.704  1.3404  0.6426  0.4746
  703EMI    H2"13357   3.109   5.440   0.779 -0.3505  0.8380  0.4247
  704EMI     N113358   1.335   5.371   2.456  0.0932  0.1412 -0.3161
  704EMI     C213359   1.227   5.418   2.399  0.1503 -0.7938  0.3926
  704EMI     N313360   1.157   5.322   2.331  0.4954 -0.5537 -0.0096
  704EMI     C413361   1.223   5.207   2.369 -0.3069 -0.0181  0.9178
  704EMI     C513362   1.334   5.235   2.438  0.0098 -0.3546  0.7749
  704EMI     H213363   1.194   5.523   2.404  0.2362  1.1842 -0.9652
  704EMI     H413364   1.198   5.108   2.347 -0.7692  1.5788  0.0985
  704EMI     H513365   1.404   5.167   2.489  1.2822 -1.1682  3.0956
  704EMI    C1'13366   1.032   5.323   2.256 -0.0666 -0.1105 -0.8645
  704EMI    H1'13367   1.046   5.279   2.157 -0.9800  0.4645 -2.7137
  704EMI    H1'13368   0.969   5.262   2.325  1.1719  0.5795  1.9320
  704EMI    H1'13369   0.984   5.420   2.258 -0.3281  1.0573  0.1451
  704EMI    C1"13370   1.425   5.434   2.551 -0.2748 -0.5929 -0.4098
  704EMI    H1"13371   1.522   5.379   2.545  1.8628  0.7733  0.5981
  704EMI    H1"13372   1.387   5.429   2.653  0.5762  0.0865 -1.7207
  704EMI    C2"13373   1.445   5.585   2.524 -0.4370 -0.2545  0.1281
  704EMI    H2"13374   1.549   5.614   2.519  0.7527  0.0376 -0.7794
  704EMI    H2"13375   1.404   5.616   2.425  2.6209 -3.1104  1.4543
  704EMI    H2"13376   1.395   5.646   2.602 -1.3386 -1.6884  1.6467
  705EMI     N113377   0.768   2.045   5.664  0.0990  0.2477  0.4621
  705EMI     C213378   0.830   2.167   5.654  0.0264  0.0426 -0.0666
  705EMI     N313379   0.763   2.252   5.738 -0.0346  0.2778 -0.2567
  705EMI     C413380   0.660   2.184   5.803 -0.0086  0.2015 -0.2450
  705EMI     C513381   0.665   2.057   5.755  0.0858 -0.0103 -0.0724
  705EMI     H213382   0.903   2.209   5.587  0.4971  2.2809 -0.6267
  705EMI     H413383   0.584   2.220   5.868  0.3785 -2.1894  2.0209
  705EMI     H513384   0.588   1.984   5.778  0.2918  1.0501 -0.8402
  705EMI    C1'13385   0.796   2.392   5.777 -0.5241  0.3337 -0.5105
  705EMI    H1'13386   0.801   2.460   5.696 -0.5501 -1.6607  2.7096
  705EMI    H1'13387   0.722   2.418   5.846  1.2078 -0.7802  1.3281
  705EMI    H1'13388   0.884   2.392   5.839 -0.5850  0.3839  2.8145
  705EMI    C1"13389   0.780   1.921   5.583 -0.2710 -0.1619 -0.2979
  705EMI    H1"13390   0.708   1.930   5.512  1.0656  0.5750  0.4679
  705EMI    H1"13391   0.763   1.829   5.640  2.5455 -1.7181 -0.7955
  705EMI    C2"13392   0.920   1.911   5.519 -0.4545 -0.8030  0.9899
  705EMI    H2"13393   0.938   1.812   5.484  0.7041  0.6672 -1.2969
  705EMI    H2"13394   0.936   1.977   5.434  2.6811 -0.3978  1.7669
  705EMI    H2"13395   1.007   1.927   5.579  2.5069 -1.1446  1.6434
  706EMI     N113396   1.010   2.464   0.616 -0.0064  0.8753 -0.6586
  706EMI     C213397   1.111   2.539   0.567 -0.7757 -0.2416 -0.1179
  706EMI     N313398   1.071   2.653   0.504 -0.4252 -0.2677  0.0523
  706EMI     C413399   0.936   2.651   0.523  0.0735 -0.5091 -0.4848
  706EMI     C513400   0.899   2.539   0.593  0.0238  0.0532 -0.0435
  706EMI     H213401   1.212   2.501   0.561 -0.0719 -0.4642  2.2471
  706EMI     H413402   0.863   2.721   0.480 -2.0543  3.4680  0.4894
  706EMI     H513403   0.797   2.508   0.617 -0.0754  0.8056 -2.1422
  706EMI    C1'13404   1.154   2.760   0.444  0.4704  0.2215  1.1707
  706EMI    H1'13405   1.251   2.724   0.417  1.7097  1.0479  2.5053
  706EMI    H1'13406   1.117   2.791   0.348 -0.1073  1.5201  1.8875
  706EMI    H1'13407   1.157   2.851   0.516 -0.1417 -1.2733 -1.0354
  706EMI    C1"13408   1.014   2.328   0.671  0.5464 -0.3779 -0.2520
  706EMI    H1"13409   0.969   2.334   0.773  1.1096  0.7943 -2.5326
  706EMI    H1"13410   1.121   2.299   0.685 -0.1625 -0.3748  0.6020
  706EMI    C2"13411   0.945   2.211   0.596  0.0878 -0.3457 -1.0265
  706EMI    H2"13412   0.833   2.225   0.588 -1.4257  2.4471 -2.7875
  706EMI    H2"13413   0.981   2.222   0.493 -0.8113  0.0778 -0.1492
  706EMI    H2"13414   0.976   2.116   0.639  1.9232 -0.1509  1.3611
  707EMI     N113415   0.289   2.721   2.251 -0.9860  0.0927 -0.7523
  707EMI     C213416   0.382   2.753   2.355  0.2641  0.2717  0.4519
  707EMI     N313417   0.499   2.695   2.332 -0.6523  0.1679  0.0587
  707EMI     C413418   0.480   2.617   2.227  0.9847 -0.1426  0.3200
  707EMI     C513419   0.358   2.632   2.172  0.0914 -0.2580  0.0987
  707EMI     H213420   0.373   2.809   2.448  2.1547  3.5725 -0.7904
  707EMI     H413421   0.553   2.545   2.184  0.0199  0.7301 -0.4649
  707EMI     H513422   0.319   2.585   2.083 -3.0710  1.9600  0.4131
  707EMI    C1'13423   0.617   2.689   2.410 -0.3694  0.1325 -1.1563
  707EMI    H1'13424   0.602   2.615   2.487  1.1494 -1.5590  0.6250
  707EMI    H1'13425   0.706   2.661   2.360 -2.4157 -2.2225  1.7989
  707EMI    H1'13426   0.616   2.777   2.477  0.3328  1.0246 -0.6064
  707EMI    C1"13427   0.149   2.764   2.223 -0.7302  0.4357 -0.3647
  707EMI    H1"13428   0.111   2.685   2.159  3.4658  2.6364 -1.9707
  707EMI    H1"13429   0.154   2.857   2.162  0.3066 -0.8523  0.3986
  707EMI    C2"13430   0.055   2.789   2.342  0.6001  0.2393 -0.7656
  707EMI    H2"13431  -0.039   2.825   2.301 -1.6185  0.1084 -0.3128
  707EMI    H2"13432   0.032   2.690   2.384 -1.5634 -2.5085 -1.0759
  707EMI    H2"13433   0.091   2.871   2.408 -2.5165 -1.3114  1.8521
  708EMI     N113434   3.660   1.696   1.038 -0.0031  0.5529 -0.4053
  708EMI     C213435   3.729   1.578   1.045  0.8297  0.7989 -0.2898
  708EMI     N313436   3.857   1.599   1.064  0.0161  0.5817 -0.5512
  708EMI     C413437   3.876   1.736   1.065 -0.2573 -0.4201 -0.1766
  708EMI     C513438   3.752   1.800   1.051 -0.2600 -0.1094 -0.2721
  708EMI     H213439   3.683   1.473   1.045  0.6411  0.8412 -3.5102
  708EMI     H413440   3.969   1.795   1.088 -1.9315  0.7364 -1.4449
  708EMI     H513441   3.729   1.908   1.077  0.4939  1.6611 -0.9255
  708EMI    C1'13442   3.970   1.499   1.090 -0.3698 -0.4508  0.8036
  708EMI    H1'13443   4.010   1.512   1.191 -1.8156  0.8591  0.7610
  708EMI    H1'13444   3.929   1.400   1.076 -0.1418 -1.0025 -0.6303
  708EMI    H1'13445   4.055   1.511   1.019  2.0137  1.4234  0.2390
  708EMI    C1"13446   3.516   1.717   1.017  0.2170  0.2373 -0.3526
  708EMI    H1"13447   3.496   1.813   0.986  0.6361 -1.7598 -1.3519
  708EMI    H1"13448   3.471   1.709   1.117  1.4558 -1.1470  1.4987
  708EMI    C2"13449   3.446   1.627   0.917 -0.0565 -0.2255  0.1019
  708EMI    H2"13450   3.346   1.664   0.918  0.6516 -1.3526  0.0129
  708EMI    H2"13451   3.493   1.620   0.812  0.3333 -1.8505  2.2262
  708EMI    H2"13452   3.449   1.522   0.953  1.8366  0.0678 -2.3131
  709EMI     N113453   5.161   1.018   3.590  0.2898 -0.1430 -0.3332
  709EMI     C213454   5.225   1.133   3.616  0.3711  0.4601  0.1239
  709EMI     N313455   5.356   1.102   3.628 -0.1403  0.0646  0.3570
  709EMI     C413456   5.370   0.969   3.594 -0.4029  0.3414 -0.3358
  709EMI     C513457   5.252   0.917   3.564  0.7727  0.6859  0.2254
  709EMI     H213458   5.192   1.236   3.638  0.1717  1.3931  2.0775
  709EMI     H413459   5.470   0.916   3.589 -0.3603  0.5102 -0.7542
  709EMI     H513460   5.226   0.813   3.524  1.1733  0.8284 -0.4573
  709EMI    C1'13461   5.468   1.186   3.684  0.4221 -0.3231  0.7475
  709EMI    H1'13462   5.552   1.146   3.627 -2.4316  1.3397  0.9687
  709EMI    H1'13463   5.462   1.293   3.675  0.1962  0.5475 -0.8026
  709EMI    H1'13464   5.474   1.179   3.788  0.9418  0.4827  1.0241
  709EMI    C1"13465   5.018   0.999   3.561 -0.4525 -0.0919 -0.1916
  709EMI    H1"13466   4.956   1.001   3.652 -0.2803  1.9485  4.0809
  709EMI    H1"13467   5.005   0.896   3.523  0.0617 -4.1533 -1.4617
  709EMI    C2"13468   4.956   1.098   3.461  0.4655 -0.4551 -0.1557
  709EMI    H2"13469   4.869   1.055   3.409  0.2740 -0.4250 -0.6576
  709EMI    H2"13470   4.926   1.182   3.513 -0.1179 -2.2309  0.3775
  709EMI    H2"13471   5.026   1.131   3.380 -3.2687 -0.2515  2.4045
  710EMI     N113472   0.862   1.103   1.168  0.0745  0.4724 -0.0647
  710EMI     C213473   0.731   1.075   1.154  0.0700  0.7070 -0.6813
  710EMI     N313474   0.657   1.181   1.187 -0.3353  0.3596  0.9158
  710EMI     C413475   0.743   1.282   1.233  0.3125 -0.7025 -0.0099
  710EMI     C513476   0.866   1.231   1.215  0.2099  0.1411 -0.0671
  710EMI     H213477   0.695   0.983   1.114  0.2520 -1.1251 -5.9141
  710EMI     H413478   0.716   1.385   1.261  0.2917  3.0447  1.4265
  710EMI     H513479   0.958   1.284   1.241  2.0614 -1.5645  1.5709
  710EMI    C1'13480   0.515   1.205   1.170  0.5651  0.0418 -0.0646
  710EMI    H1'13481   0.465   1.107   1.189  0.2715 -1.4941  1.6947
  710EMI    H1'13482   0.481   1.279   1.250 -0.8960  2.0010  0.6527
  710EMI    H1'13483   0.480   1.229   1.070  2.8181  1.4664  1.6637
  710EMI    C1"13484   0.981   1.036   1.114 -0.8542  0.2642  0.3460
  710EMI    H1"13485   1.056   1.108   1.097 -1.4707 -2.8714  1.7615
  710EMI    H1"13486   0.961   0.986   1.015  0.6270  0.0104 -0.4327
  710EMI    C2"13487   1.038   0.940   1.213 -0.2759  0.3248  0.2976
  710EMI    H2"13488   1.125   0.895   1.158 -1.1001  3.5727  1.0998
  710EMI    H2"13489   1.081   0.999   1.296  3.1726  1.8962 -2.2533
  710EMI    H2"13490   0.961   0.868   1.244  1.6153 -0.6414  0.2567
  711EMI     N113491   4.495   1.117   3.801 -0.0997 -0.1382 -0.4216
  711EMI     C213492   4.367   1.118   3.765 -0.2965  0.3618 -0.3121
  711EMI     N313493   4.319   0.994   3.751 -0.7260  0.4044  0.2389
  711EMI     C413494   4.425   0.913   3.777  0.0533 -0.2932  0.1739
  711EMI     C513495   4.535   0.987   3.809 -0.4209  1.1104  0.9775
  711EMI     H213496   4.317   1.211   3.758  0.2029 -1.2621  0.3448
  711EMI     H413497   4.421   0.802   3.780 -2.2486  0.4825 -0.8400
  711EMI     H513498   4.631   0.945   3.813 -0.2355 -0.0384  0.9926
  711EMI    C1'13499   4.182   0.953   3.741  0.3159 -0.0744  0.0860
  711EMI    H1'13500   4.146   0.900   3.831 -2.0236  0.1995  1.2659
  711EMI    H1'13501   4.127   1.047   3.733 -0.2308  1.8881 -0.5721
  711EMI    H1'13502   4.152   0.899   3.652  0.6832 -2.8396  2.2579
  711EMI    C1"13503   4.586   1.229   3.833  0.2760  0.9098 -0.0329
  711EMI    H1"13504   4.629   1.202   3.929 -2.0197  0.4788 -0.3502
  711EMI    H1"13505   4.525   1.317   3.835 -3.5285  1.1468  3.0324
  711EMI    C2"13506   4.688   1.241   3.728  0.3173 -0.1176 -0.7235
  711EMI    H2"13507   4.739   1.339   3.750 -1.3443  0.5884  1.2117
  711EMI    H2"13508   4.762   1.165   3.748 -1.7280  3.9250 -2.7169
  711EMI    H2"13509   4.647   1.247   3.633  0.4922 -3.4665  2.5368
  712EMI     N113510   1.898   0.947   5.273  0.5698 -0.5345  0.4878
  712EMI     C213511   1.860   0.890   5.387  0.5234  0.2848 -0.6214
  712EMI     N313512   1.811   0.765   5.356 -0.3426 -0.4067  0.1867
  712EMI     C413513   1.827   0.758   5.216  0.3242 -0.0108 -0.5226
  712EMI     C513514   1.874   0.872   5.162  0.0460 -0.2415  0.0683
  712EMI     H213515   1.873   0.921   5.490 -1.7400  1.3366  1.1886
  712EMI     H413516   1.796   0.668   5.161 -1.3858 -2.5651 -0.3518
  712EMI     H513517   1.900   0.902   5.064 -0.3520 -0.8799  2.3811
  712EMI    C1'13518   1.747   0.665   5.439 -0.7809  0.2065 -0.8631
  712EMI    H1'13519   1.661   0.617   5.392  0.6360 -1.5798 -0.4306
  712EMI    H1'13520   1.819   0.585   5.460 -1.5228 -2.2184  2.8189
  712EMI    H1'13521   1.730   0.711   5.540 -3.5266 -0.7260  3.0568
  712EMI    C1"13522   1.978   1.062   5.251  0.2377 -0.3764 -0.0241
  712EMI    H1"13523   2.079   1.027   5.229  1.8991 -0.4205 -1.3584
  712EMI    H1"13524   1.967   1.116   5.343  0.6984  0.0216  0.3963
  712EMI    C2"13525   1.932   1.156   5.143 -0.3090 -0.4685 -0.3298
  712EMI    H2"13526   1.999   1.241   5.142  2.4372 -1.5313  0.1664
  712EMI    H2"13527   1.952   1.114   5.046 -0.3634 -3.8759 -1.6111
  712EMI    H2"13528   1.826   1.182   5.145 -0.0287  0.9806  0.5526
  713EMI     N113529   1.328   0.542   4.095 -0.4263  0.3440 -0.0859
  713EMI     C213530   1.297   0.431   4.168 -0.1882 -0.6010 -0.2722
  713EMI     N313531   1.406   0.382   4.233  0.6724 -0.3644 -0.2479
  713EMI     C413532   1.511   0.465   4.189 -0.0074 -0.3123  0.1401
  713EMI     C513533   1.469   0.557   4.100 -0.0369  0.4823  0.0732
  713EMI     H213534   1.202   0.383   4.157  0.9056  0.4796  2.4776
  713EMI     H413535   1.614   0.442   4.206  1.2960 -0.9776  0.2004
  713EMI     H513536   1.521   0.635   4.042 -0.7817  2.3409 -1.7417
  713EMI    C1'13537   1.434   0.280   4.329  0.1037  0.9867  0.1560
  713EMI    H1'13538   1.525   0.313   4.380 -2.2217 -1.5453 -0.7143
  713EMI    H1'13539   1.355   0.252   4.400 -0.9655  0.1326 -3.0746
  713EMI    H1'13540   1.469   0.186   4.281  0.8892 -1.4226  0.9334
  713EMI    C1"13541   1.242   0.612   4.003  0.2297  0.3231 -0.6618
  713EMI    H1"13542   1.281   0.713   3.992  0.3449  2.5008 -0.9862
  713EMI    H1"13543   1.137   0.614   4.043 -1.3750 -4.8307 -2.9814
  713EMI    C2"13544   1.255   0.556   3.863  0.4253 -0.2606 -0.4253
  713EMI    H2"13545   1.200   0.620   3.795 -2.3375 -0.6292  1.3057
  713EMI    H2"13546   1.355   0.540   3.828  1.6016 -2.6452 -1.0979
  713EMI    H2"13547   1.196   0.464   3.862 -2.6967  0.1788 -0.4772
  714EMI     N113548   0.247   2.624   3.301  0.2166 -0.2378  0.2329
  714EMI     C213549   0.163   2.623   3.405  0.0134 -0.2918 -0.4800
  714EMI     N313550   0.039   2.583   3.366  0.0989 -0.2216  0.5096
  714EMI     C413551   0.048   2.541   3.233  0.8086  0.2309 -0.4987
  714EMI     C513552   0.172   2.574   3.196 -0.2472 -0.2848 -0.1066
  714EMI     H213553   0.190   2.662   3.503 -1.2296 -0.5387 -0.5414
  714EMI     H413554  -0.027   2.492   3.169 -0.4640  3.2183 -1.5150
  714EMI     H513555   0.218   2.563   3.103  0.5256  1.0389  1.7279
  714EMI    C1'13556  -0.076   2.560   3.453 -0.2348  0.2401  0.6767
  714EMI    H1'13557  -0.034   2.543   3.554 -0.5134  0.0444 -0.1439
  714EMI    H1'13558  -0.148   2.643   3.459  0.6079  0.3373  1.0864
  714EMI    H1'13559  -0.127   2.476   3.414  0.1944  0.5610 -1.0432
  714EMI    C1"13560   0.388   2.666   3.283 -0.0549 -0.8897 -0.5614
  714EMI    H1"13561   0.439   2.611   3.202  1.6279 -1.8401  0.6481
  714EMI    H1"13562   0.437   2.631   3.376 -0.4014 -1.5846 -0.3212
  714EMI    C2"13563   0.411   2.818   3.257 -0.1514  0.5855 -0.4554
  714EMI    H2"13564   0.377   2.885   3.335  0.5472  0.1143 -0.7467
  714EMI    H2"13565   0.514   2.845   3.240  1.8487 -1.6266 -1.1407
  714EMI    H2"13566   0.366   2.839   3.164 -0.5760  1.2476  1.6153
  715EMI     N113567   2.222   1.727   2.866  0.5165 -0.9921  0.3316
  715EMI     C213568   2.316   1.824   2.848  0.1724 -1.1035  0.0602
  715EMI     N313569   2.402   1.829   2.949  0.1541 -0.3487  0.4509
  715EMI     C413570   2.352   1.734   3.041  0.2185 -0.5143  0.1576
  715EMI     C513571   2.247   1.678   2.994 -0.8503  0.9043  0.1224
  715EMI     H213572   2.327   1.867   2.747 -1.7166 -2.4019 -0.0765
  715EMI     H413573   2.397   1.715   3.140  2.6891  0.0022 -1.4228
  715EMI     H513574   2.177   1.609   3.047 -2.0769  0.0606 -2.3012
  715EMI    C1'13575   2.532   1.904   2.948  0.2752  0.2116 -0.8693
  715EMI    H1'13576   2.606   1.859   2.889  0.0604 -0.4332 -1.2942
  715EMI    H1'13577   2.506   2.004   2.912 -0.1604 -0.0547 -0.9179
  715EMI    H1'13578   2.576   1.897   3.041  0.4589  1.8867 -0.1034
  715EMI    C1"13579   2.108   1.677   2.780 -0.1283 -0.0038  0.1485
  715EMI    H1"13580   2.087   1.749   2.706 -2.2999  0.2588 -0.7168
  715EMI    H1"13581   2.017   1.670   2.845 -2.1635  2.9755 -0.8306
  715EMI    C2"13582   2.147   1.548   2.712  1.1306  0.5185  0.4251
  715EMI    H2"13583   2.155   1.461   2.779  2.7561  1.4325 -0.3070
  715EMI    H2"13584   2.083   1.518   2.632  0.4973 -1.0893  0.1507
  715EMI    H2"13585   2.243   1.569   2.674 -0.2832  0.0013 -1.5203
  716EMI     N113586   3.578   3.910   3.769 -0.6832 -0.3641 -0.2290
  716EMI     C213587   3.634   3.854   3.651  0.0791 -0.4867  0.3904
  716EMI     N313588   3.726   3.760   3.679  0.0082  0.1694  0.1880
  716EMI     C413589   3.736   3.760   3.816  0.2427 -0.4943  0.5418
  716EMI     C513590   3.640   3.843   3.869 -0.4506 -0.4533 -0.4959
  716EMI     H213591   3.602   3.873   3.550  0.5420  1.0296 -2.3989
  716EMI     H413592   3.794   3.696   3.875  3.0316  1.3455  2.6129
  716EMI     H513593   3.622   3.849   3.975 -2.8044  1.7483  0.1280
  716EMI    C1'13594   3.802   3.669   3.591 -0.6545 -0.0059 -0.3765
  716EMI    H1'13595   3.738   3.589   3.551  0.8453  0.0530 -0.0194
  716EMI    H1'13596   3.848   3.727   3.509 -1.2755  0.7815 -3.2548
  716EMI    H1'13597   3.883   3.642   3.662  0.4412 -0.3116 -2.5657
  716EMI    C1"13598   3.479   4.021   3.794  0.7612 -0.0085  0.0563
  716EMI    H1"13599   3.460   4.015   3.897 -3.9622  0.9172  0.7230
  716EMI    H1"13600   3.387   4.013   3.736 -0.7885  2.0248  2.1937
  716EMI    C2"13601   3.544   4.151   3.758 -0.2530  0.3956 -0.1080
  716EMI    H2"13602   3.493   4.241   3.786  1.2015 -1.9722 -0.0753
  716EMI    H2"13603   3.643   4.161   3.811  4.9387  0.1005 -2.3559
  716EMI    H2"13604   3.566   4.154   3.651  0.5134 -0.4275 -2.4467
  717EMI     N113605   2.516   4.242   2.773  0.2372  0.6898  0.2982
  717EMI     C213606   2.651   4.224   2.758  0.3445  0.5286 -0.4870
  717EMI     N313607   2.714   4.327   2.709  0.5330 -0.3204 -0.4961
  717EMI     C413608   2.618   4.419   2.678  0.1619  0.3253 -0.4293
  717EMI     C513609   2.496   4.367   2.713  0.6976  0.3374  0.4548
  717EMI     H213610   2.696   4.128   2.784  1.1129 -0.8249 -1.4469
  717EMI     H413611   2.624   4.511   2.623 -2.2181  0.7997 -0.1500
  717EMI     H513612   2.403   4.412   2.694  2.0696  0.8567 -0.6863
  717EMI    C1'13613   2.852   4.338   2.665  0.2078 -0.0036 -0.0172
  717EMI    H1'13614   2.878   4.438   2.667 -1.7270 -7.0297  1.6724
  717EMI    H1'13615   2.918   4.291   2.739  0.5932 -5.4340 -0.3561
  717EMI    H1'13616   2.870   4.289   2.570  1.1326 -0.3050 -0.8041
  717EMI    C1"13617   2.414   4.161   2.844  0.1282 -0.1163 -0.5906
  717EMI    H1"13618   2.413   4.064   2.794  2.6454 -5.0630  0.1857
  717EMI    H1"13619   2.324   4.212   2.834 -1.4410 -2.6174 -1.3017
  717EMI    C2"13620   2.455   4.148   2.990 -0.7193  0.2143  0.8715
  717EMI    H2"13621   2.557   4.114   2.997 -1.4937  0.7304 -2.8813
  717EMI    H2"13622   2.420   4.234   3.046 -2.8625 -1.9568 -2.0143
  717EMI    H2"13623   2.391   4.069   3.032  0.4550 -0.9731  1.7335
  718EMI     N113624   2.135   1.616   2.139  0.3928 -0.5442 -0.6736
  718EMI     C213625   2.200   1.669   2.247  0.0683 -0.4963  0.9327
  718EMI     N313626   2.287   1.575   2.294  1.0979  0.0919 -0.6400
  718EMI     C413627   2.270   1.459   2.221 -0.3324 -0.1354 -0.0844
  718EMI     C513628   2.182   1.488   2.117 -0.7623 -0.5510  0.5327
  718EMI     H213629   2.191   1.761   2.307 -2.2405  1.2357  0.3036
  718EMI     H413630   2.329   1.361   2.228  0.5119 -1.5361  0.9481
  718EMI     H513631   2.152   1.407   2.046 -1.9505  1.7910 -1.5911
  718EMI    C1'13632   2.386   1.586   2.396 -0.0859 -0.0547 -0.1016
  718EMI    H1'13633   2.461   1.659   2.376 -0.5353  0.9387 -0.3394
  718EMI    H1'13634   2.337   1.626   2.487  2.4751  0.2815  0.8291
  718EMI    H1'13635   2.437   1.494   2.405  0.7835  0.1410  0.3591
  718EMI    C1"13636   2.013   1.669   2.067 -0.1674 -0.2194 -0.0167
  718EMI    H1"13637   1.943   1.717   2.140  0.6923 -3.4492  0.2286
  718EMI    H1"13638   1.963   1.587   2.018  0.0698 -0.6327  0.5102
  718EMI    C2"13639   2.057   1.777   1.973  0.2963 -0.7221  0.8108
  718EMI    H2"13640   2.105   1.854   2.034 -0.5511  0.7830 -0.6128
  718EMI    H2"13641   2.133   1.743   1.904 -2.0967 -0.0598 -0.8829
  718EMI    H2"13642   1.976   1.823   1.917  1.6683 -0.2548 -1.5288
  719EMI     N113643   0.257   0.808   3.489 -0.0689  0.9048 -1.0273
  719EMI     C213644   0.239   0.812   3.621 -0.0656  0.6125 -0.5558
  719EMI     N313645   0.353   0.838   3.681  0.7573  0.1861 -0.1112
  719EMI     C413646   0.450   0.829   3.590  0.2184 -0.2651 -0.0266
  719EMI     C513647   0.390   0.804   3.473  0.1698 -0.4746 -0.4170
  719EMI     H213648   0.143   0.799   3.665 -1.6148 -0.4469 -0.3958
  719EMI     H413649   0.561   0.837   3.605 -0.2343 -0.2561 -0.7605
  719EMI     H513650   0.450   0.796   3.384  0.0077 -0.0316  1.0559
  719EMI    C1'13651   0.380   0.864   3.830  0.1444 -1.1732  0.2145
  719EMI    H1'13652   0.414   0.966   3.837  0.2929  0.4451 -0.1684
  719EMI    H1'13653   0.284   0.843   3.888 -1.4554 -0.4487 -1.1245
  719EMI    H1'13654   0.450   0.797   3.879  0.1940  0.4864  1.4763
  719EMI    C1"13655   0.171   0.796   3.380  0.0800  0.3649  0.2526
  719EMI    H1"13656   0.150   0.691   3.370  0.3413  3.5431 -3.1779
  719EMI    H1"13657   0.238   0.827   3.303 -0.5190 -0.2167  3.4457
  719EMI    C2"13658   0.042   0.881   3.389  0.0599 -0.7060  0.7693
  719EMI    H2"13659  -0.012   0.849   3.302  4.1689 -1.8089 -1.5305
  719EMI    H2"13660  -0.009   0.867   3.488  0.9208  2.2622 -1.0277
  719EMI    H2"13661   0.069   0.987   3.387  2.2616  0.1024  1.7039
  720EMI     N113662   3.094   0.500   0.665 -0.1255  0.2377 -0.0600
  720EMI     C213663   3.044   0.457   0.780 -0.0909 -0.0821  0.2017
  720EMI     N313664   3.122   0.492   0.886  0.2685 -0.4993 -0.0643
  720EMI     C413665   3.230   0.562   0.833  0.3903 -0.0765 -0.2285
  720EMI     C513666   3.210   0.563   0.698 -0.4827  0.4793  0.2416
  720EMI     H213667   2.958   0.403   0.791  1.9222  1.2860  2.0792
  720EMI     H413668   3.312   0.600   0.894  1.0195  3.2618  1.4705
  720EMI     H513669   3.282   0.609   0.628 -0.2628  1.4754  1.9294
  720EMI    C1'13670   3.106   0.476   1.034  0.1812 -0.6333  0.0333
  720EMI    H1'13671   3.106   0.579   1.076 -0.4432 -1.0090 -0.7440
  720EMI    H1'13672   3.023   0.416   1.071 -2.1852 -0.0048 -0.0677
  720EMI    H1'13673   3.196   0.423   1.073  2.6770 -1.0633 -2.7863
  720EMI    C1"13674   3.047   0.493   0.519  0.2260  0.2391 -0.7090
  720EMI    H1"13675   3.061   0.394   0.485 -1.3416  0.6957 -1.6787
  720EMI    H1"13676   3.107   0.554   0.455 -1.3857 -0.3415  1.7149
  720EMI    C2"13677   2.902   0.530   0.503  0.1045  1.2008 -0.5112
  720EMI    H2"13678   2.867   0.507   0.396  0.6296  1.9626  0.6315
  720EMI    H2"13679   2.843   0.479   0.579 -1.5682 -1.6812 -1.7429
  720EMI    H2"13680   2.887   0.636   0.525  0.8806 -0.8345 -0.7015
  721EMI     N113681   0.927   0.627   3.407  0.8586  0.2428  0.6700
  721EMI     C213682   0.866   0.534   3.328  0.0875 -0.0941  0.1475
  721EMI     N313683   0.799   0.602   3.234  0.0683 -0.7531  0.3761
  721EMI     C413684   0.808   0.736   3.262 -0.4080 -0.3802 -0.5808
  721EMI     C513685   0.888   0.752   3.369  0.2442 -0.2766  0.4041
  721EMI     H213686   0.871   0.426   3.330 -1.2338 -0.1199 -0.5179
  721EMI     H413687   0.758   0.809   3.203 -0.3939  0.5873 -0.2072
  721EMI     H513688   0.935   0.844   3.397  2.5734 -0.4290  0.6397
  721EMI    C1'13689   0.704   0.553   3.139 -0.3513  0.1195 -0.0357
  721EMI    H1'13690   0.688   0.446   3.161 -0.5981  1.6461 -1.0288
  721EMI    H1'13691   0.607   0.608   3.151 -0.5937 -0.3241 -1.7001
  721EMI    H1'13692   0.744   0.551   3.038  0.0367  1.7090 -1.9125
  721EMI    C1"13693   1.018   0.610   3.519 -0.0933 -0.5680  0.1663
  721EMI    H1"13694   0.964   0.634   3.612 -1.3896  0.9612 -0.7403
  721EMI    H1"13695   1.108   0.669   3.499  1.7781 -1.1001  1.2300
  721EMI    C2"13696   1.068   0.466   3.542 -0.2075 -0.3888  0.1943
  721EMI    H2"13697   1.138   0.430   3.467 -1.5561  0.9399  0.7549
  721EMI    H2"13698   1.126   0.464   3.631  1.1867 -1.0735 -0.0919
  721EMI    H2"13699   0.985   0.401   3.551  0.1878 -1.0053 -2.2869
  722EMI     N113700   0.065   5.244   5.596 -0.0632 -0.0001 -0.1705
  722EMI     C213701   0.153   5.303   5.511 -0.3899  0.0696  0.1246
  722EMI     N313702   0.266   5.236   5.520 -0.9411  0.4459  0.0240
  722EMI     C413703   0.250   5.146   5.623  0.2181  0.3261 -0.0603
  722EMI     C513704   0.128   5.149   5.675  0.0714  0.0621 -0.0551
  722EMI     H213705   0.138   5.385   5.437  1.7092  1.5195  1.1927
  722EMI     H413706   0.327   5.084   5.668  0.8301  1.7751 -3.2083
  722EMI     H513707   0.094   5.098   5.760  0.1501 -1.3878 -2.5712
  722EMI    C1'13708   0.392   5.250   5.453 -0.6203  0.4506  0.0840
  722EMI    H1'13709   0.463   5.179   5.499 -0.2253  1.0319 -1.9808
  722EMI    H1'13710   0.371   5.238   5.345 -0.1469  3.3134  0.2404
  722EMI    H1'13711   0.433   5.351   5.473 -0.2959 -2.2568 -0.4100
  722EMI    C1"13712  -0.075   5.277   5.624 -0.4451 -0.7730  1.0402
  722EMI    H1"13713  -0.134   5.191   5.654 -1.3523  1.6834  3.1828
  722EMI    H1"13714  -0.120   5.329   5.546  0.4797 -1.5744  1.6233
  722EMI    C2"13715  -0.086   5.360   5.751 -0.6589  0.7015 -0.7819
  722EMI    H2"13716  -0.028   5.315   5.828  1.2526 -0.2047  0.4334
  722EMI    H2"13717  -0.035   5.451   5.720  0.7181 -1.0744 -0.6042
  722EMI    H2"13718  -0.192   5.385   5.772 -0.0317  1.0395  1.1145
  723EMI     N113719   5.177   5.899   0.276 -0.3392  0.4132 -0.0485
  723EMI     C213720   5.234   6.019   0.270  0.5530 -0.3378 -0.5663
  723EMI     N313721   5.284   6.041   0.145  0.4664 -0.5227  0.5312
  723EMI     C413722   5.251   5.928   0.071 -0.6440  0.1557  0.8378
  723EMI     C513723   5.195   5.839   0.153  0.3523  0.3924  0.7314
  723EMI     H213724   5.239   6.094   0.344  2.5727 -0.5427 -0.8845
  723EMI     H413725   5.262   5.909  -0.042 -2.1972  3.1636 -4.6566
  723EMI     H513726   5.164   5.734   0.118  1.8477 -0.0854  0.5023
  723EMI    C1'13727   5.369   6.152   0.087 -0.2347 -0.0954 -0.6321
  723EMI    H1'13728   5.419   6.111   0.004  0.1730 -1.1447 -0.7633
  723EMI    H1'13729   5.306   6.230   0.060 -0.4233  1.2405  1.1876
  723EMI    H1'13730   5.439   6.187   0.167  3.1066 -3.7612  0.0407
  723EMI    C1"13731   5.128   5.839   0.395  0.2860 -0.6315  0.2793
  723EMI    H1"13732   5.202   5.874   0.466 -1.2999 -1.2728 -1.4857
  723EMI    H1"13733   5.127   5.730   0.393 -0.3398  1.0056  1.3693
  723EMI    C2"13734   4.985   5.880   0.429 -0.0486 -0.2667 -0.7930
  723EMI    H2"13735   4.988   5.984   0.433  1.8883 -0.3751  0.2005
  723EMI    H2"13736   4.916   5.847   0.346 -0.9665  0.3567  1.5074
  723EMI    H2"13737   4.936   5.846   0.524 -3.0028 -1.1273  0.8640
  724EMI     N113738   4.232   3.090   1.683  0.7685  0.5523  0.2022
  724EMI     C213739   4.201   3.005   1.780 -0.3621  0.0380  0.1099
  724EMI     N313740   4.290   3.020   1.879 -0.0691  0.6394 -0.3171
  724EMI     C413741   4.375   3.123   1.848  0.0704  0.2176 -0.8273
  724EMI     C513742   4.340   3.166   1.723 -0.1138 -0.4519 -0.4095
  724EMI     H213743   4.114   2.941   1.787 -0.9572 -2.1491 -1.2867
  724EMI     H413744   4.447   3.167   1.911  0.5101 -0.2242 -1.2488
  724EMI     H513745   4.385   3.242   1.671  1.4949  1.0083 -1.1497
  724EMI    C1'13746   4.310   2.941   2.001 -0.1263  0.2586 -0.3294
  724EMI    H1'13747   4.360   2.843   1.986  0.5264 -3.3853  1.8102
  724EMI    H1'13748   4.349   3.004   2.083 -1.8188 -0.1112  0.6893
  724EMI    H1'13749   4.206   2.910   2.022 -0.4509 -2.3634 -0.4259
  724EMI    C1"13750   4.158   3.122   1.560 -0.0619 -0.3141  0.2348
  724EMI    H1"13751   4.193   3.222   1.512  0.7077  0.3254 -2.1970
  724EMI    H1"13752   4.054   3.118   1.582  2.4083 -0.1107  0.5882
  724EMI    C2"13753   4.197   3.010   1.461  0.8171  0.5143 -0.6045
  724EMI    H2"13754   4.160   2.923   1.508  1.5608  1.7496  0.5641
  724EMI    H2"13755   4.135   3.013   1.373  0.2066 -2.7335 -0.2353
  724EMI    H2"13756   4.307   3.007   1.439  0.2864  2.3465 -0.7832
  725EMI     N113757   5.770   6.190   4.248  0.0346 -0.0219 -0.3623
  725EMI     C213758   5.764   6.140   4.123 -0.0767  0.6454 -0.7735
  725EMI     N313759   5.657   6.191   4.060  0.9736 -0.3518  0.0659
  725EMI     C413760   5.587   6.266   4.155 -0.2576 -0.2411 -0.4859
  725EMI     C513761   5.660   6.268   4.264 -0.8205 -0.1832 -0.2661
  725EMI     H213762   5.833   6.071   4.077  1.2409  0.4486  1.3946
  725EMI     H413763   5.493   6.312   4.137  0.8800  0.8282 -2.0675
  725EMI     H513764   5.646   6.331   4.351 -1.2661 -2.1763 -1.8051
  725EMI    C1'13765   5.604   6.168   3.922 -0.3913  0.4492  0.1968
  725EMI    H1'13766   5.666   6.088   3.881 -2.4740 -1.7242 -1.3875
  725EMI    H1'13767   5.503   6.124   3.932 -0.3459 -1.7980  1.3051
  725EMI    H1'13768   5.612   6.251   3.855 -3.3283  0.0773 -0.8948
  725EMI    C1"13769   5.877   6.173   4.349  0.1861  0.0260  0.1079
  725EMI    H1"13770   5.857   6.080   4.404 -1.6878 -1.4633  2.8169
  725EMI    H1"13771   5.870   6.253   4.430  0.5907 -0.2782  1.5750
  725EMI    C2"13772   6.018   6.189   4.283  0.2066  0.3711 -0.4131
  725EMI    H2"13773   6.034   6.135   4.191 -2.3111  1.7420  3.6644
  725EMI    H2"13774   6.037   6.300   4.277  1.7952  3.2739  0.7748
  725EMI    H2"13775   6.086   6.142   4.355 -0.1947 -1.5853 -0.1583
  726EMI     N113776   1.354   6.184   4.592  0.2091 -0.0984 -0.3004
  726EMI     C213777   1.264   6.121   4.512  0.9573  0.2288 -0.4616
  726EMI     N313778   1.246   6.003   4.569  0.0660 -0.1463 -0.8707
  726EMI     C413779   1.329   5.984   4.679  0.3273  0.6650 -0.1998
  726EMI     C513780   1.393   6.099   4.692  0.1304  0.3003  0.0984
  726EMI     H213781   1.207   6.153   4.429 -0.2585 -2.5765 -1.8627
  726EMI     H413782   1.323   5.889   4.737 -0.6360 -2.6281 -1.2457
  726EMI     H513783   1.457   6.122   4.778  1.2680 -0.1640 -0.6650
  726EMI    C1'13784   1.141   5.907   4.537  0.1236  0.2498 -0.2410
  726EMI    H1'13785   1.060   5.951   4.473 -1.3021 -1.0501  2.6602
  726EMI    H1'13786   1.198   5.838   4.478 -1.6311  1.5151  2.4729
  726EMI    H1'13787   1.108   5.842   4.620  0.7968 -1.4136 -0.2490
  726EMI    C1"13788   1.399   6.325   4.587 -0.4792 -0.2513  0.0512
  726EMI    H1"13789   1.425   6.348   4.485  1.7104  1.5290  3.2779
  726EMI    H1"13790   1.490   6.341   4.647 -1.9869 -0.0887  0.4937
  726EMI    C2"13791   1.280   6.417   4.635 -0.2725 -0.4848 -0.5738
  726EMI    H2"13792   1.300   6.461   4.726 -0.5696  1.1047  0.7275
  726EMI    H2"13793   1.283   6.503   4.573  0.2635  1.7432 -0.8964
  726EMI    H2"13794   1.185   6.370   4.620  0.4553 -1.2052 -4.5652
  727EMI     N113795   2.314   3.331   5.656 -0.3607  0.2529 -0.4435
  727EMI     C213796   2.214   3.291   5.576 -0.6068  0.2230 -0.5079
  727EMI     N313797   2.129   3.209   5.643 -0.4849 -0.1721  0.1888
  727EMI     C413798   2.174   3.212   5.776  0.1824  0.7890  0.5408
  727EMI     C513799   2.290   3.279   5.779 -0.2687  0.1334  0.7779
  727EMI     H213800   2.203   3.315   5.473 -0.4876 -1.2352  1.7481
  727EMI     H413801   2.136   3.160   5.863  0.5558 -1.6285  1.7652
  727EMI     H513802   2.361   3.284   5.862 -2.8355 -2.8666  1.9031
  727EMI    C1'13803   2.014   3.124   5.601 -0.2332 -0.1502 -0.2700
  727EMI    H1'13804   2.039   3.077   5.508  0.4730  0.0736 -1.2742
  727EMI    H1'13805   1.982   3.045   5.667 -1.2074  0.8034  0.2594
  727EMI    H1'13806   1.929   3.189   5.573  1.5199  0.5189 -0.1483
  727EMI    C1"13807   2.445   3.402   5.628 -0.2270  0.1201 -0.6687
  727EMI    H1"13808   2.527   3.330   5.596 -0.8660  0.9304 -0.6081
  727EMI    H1"13809   2.487   3.452   5.719 -1.7999  3.4151  0.7099
  727EMI    C2"13810   2.436   3.501   5.511  0.5199 -0.0611  0.8752
  727EMI    H2"13811   2.428   3.457   5.412 -0.8735  2.2548 -0.5485
  727EMI    H2"13812   2.356   3.570   5.534 -0.8817  1.6533  0.4803
  727EMI    H2"13813   2.522   3.560   5.502 -3.7857  1.9687  1.5202
  728EMI     N113814   0.655   6.026   0.115  0.4380  0.2562  0.2726
  728EMI     C213815   0.682   5.952   0.007  0.0841  0.7299 -0.8522
  728EMI     N313816   0.684   6.026  -0.109 -0.0276  0.1771 -0.3272
  728EMI     C413817   0.652   6.156  -0.072 -0.1577 -0.3244  0.1969
  728EMI     C513818   0.639   6.150   0.061  0.0598  0.3580 -0.2257
  728EMI     H213819   0.722   5.854   0.015  0.4135  1.6662 -0.9010
  728EMI     H413820   0.642   6.240  -0.139  0.7795  1.8046  0.1538
  728EMI     H513821   0.616   6.240   0.114 -0.0401 -0.6463 -0.1577
  728EMI    C1'13822   0.712   5.973  -0.249 -0.1534 -0.2850 -0.0983
  728EMI    H1'13823   0.637   6.016  -0.310 -0.4899 -1.0823 -1.2921
  728EMI    H1'13824   0.806   6.010  -0.274  0.6213 -1.0310  0.3212
  728EMI    H1'13825   0.714   5.865  -0.254  1.6646 -0.2164  0.1145
  728EMI    C1"13826   0.647   5.994   0.255 -0.2222  0.1159 -0.0020
  728EMI    H1"13827   0.720   6.055   0.319 -0.2695  1.1169 -0.7847
  728EMI    H1"13828   0.674   5.888   0.255 -0.7239  1.8177  0.5867
  728EMI    C2"13829   0.504   6.000   0.306 -0.5220  0.2134 -0.1344
  728EMI    H2"13830   0.435   5.959   0.234  1.1131 -0.8402 -0.4904
  728EMI    H2"13831   0.499   5.943   0.401 -0.7825 -0.8441 -1.1763
  728EMI    H2"13832   0.468   6.100   0.341 -2.5325  1.4662 -1.2276
  729EMI     N113833   1.287   1.104   2.539  0.1350  0.1790 -0.3122
  729EMI     C213834   1.172   1.038   2.541 -0.3384 -0.4658 -0.1638
  729EMI     N313835   1.069   1.125   2.528  0.3103  0.2634 -0.4535
  729EMI     C413836   1.130   1.254   2.516  0.4483  0.9344  0.0656
  729EMI     C513837   1.262   1.241   2.521 -0.5815  0.4339 -0.2592
  729EMI     H213838   1.169   0.932   2.534 -1.1558 -1.5820  0.2712
  729EMI     H413839   1.072   1.346   2.510 -2.0940 -0.7275 -2.0253
  729EMI     H513840   1.334   1.321   2.515  1.4768  1.3262 -2.4072
  729EMI    C1'13841   0.921   1.108   2.516 -0.1072 -0.0787  0.4831
  729EMI    H1'13842   0.875   1.182   2.579 -0.0108 -2.4558  0.2745
  729EMI    H1'13843   0.885   1.124   2.411 -0.8451  0.5316  1.4620
  729EMI    H1'13844   0.895   1.014   2.560  0.0866  0.0510 -1.8934
  729EMI    C1"13845   1.425   1.051   2.559  0.0665 -0.3622  0.1458
  729EMI    H1"13846   1.472   1.114   2.624  0.2408  0.5982 -0.0614
  729EMI    H1"13847   1.479   1.045   2.465 -0.0303 -0.2162  2.3845
  729EMI    C2"13848   1.421   0.917   2.636 -0.1696  0.0849  0.6585
  729EMI    H2"13849   1.516   0.902   2.684 -0.7396  0.3742 -0.7161
  729EMI    H2"13850   1.334   0.910   2.695  1.7426  0.0161 -0.9613
  729EMI    H2"13851   1.413   0.837   2.558  1.8275  0.2982 -0.0575
  730EMI     N113852   2.745   1.101   0.420  0.0858  0.2919 -0.0483
  730EMI     C213853   2.659   1.198   0.378  0.0310  0.0814 -0.1341
  730EMI     N313854   2.712   1.281   0.284 -0.1606  0.2001 -0.2117
  730EMI     C413855   2.835   1.224   0.258  0.4517 -0.0031 -0.9180
  730EMI     C513856   2.862   1.115   0.342  0.3655 -0.5014 -0.1423
  730EMI     H213857   2.563   1.225   0.422  0.8405 -2.4621  0.0838
  730EMI     H413858   2.912   1.256   0.180 -1.9962 -0.8571  0.8033
  730EMI     H513859   2.957   1.064   0.345 -0.4560 -0.5841  2.7510
  730EMI    C1'13860   2.659   1.402   0.224 -0.2211  0.4192 -0.4474
  730EMI    H1'13861   2.738   1.462   0.187 -2.9482  0.6778 -1.6966
  730EMI    H1'13862   2.588   1.376   0.148  2.4389 -1.3910  2.2350
  730EMI    H1'13863   2.620   1.460   0.307  0.0583 -0.6832 -1.3018
  730EMI    C1"13864   2.731   0.994   0.519 -0.0202 -0.2221  0.2877
  730EMI    H1"13865   2.638   1.011   0.582 -1.9008  2.4085 -0.2340
  730EMI    H1"13866   2.817   1.018   0.586 -1.0920 -2.2068 -0.0974
  730EMI    C2"13867   2.719   0.851   0.473 -0.5908 -0.2618  0.4712
  730EMI    H2"13868   2.643   0.840   0.397 -0.3276 -0.6387  1.2428
  730EMI    H2"13869   2.810   0.811   0.419  1.4190 -0.2150  0.9308
  730EMI    H2"13870   2.692   0.796   0.561 -3.3432  3.7038  0.8890
  731EMI     N113871   5.164   4.424   4.576 -0.5892 -0.2281 -0.8847
  731EMI     C213872   5.134   4.325   4.665  0.5202 -0.4671 -0.4235
  731EMI     N313873   5.246   4.288   4.735 -0.2919  0.4778 -0.9304
  731EMI     C413874   5.354   4.361   4.670 -0.5619 -0.2277 -0.0430
  731EMI     C513875   5.302   4.438   4.572 -0.0894  0.0136  0.4629
  731EMI     H213876   5.031   4.296   4.694 -2.5264 -0.7208  0.9712
  731EMI     H413877   5.461   4.356   4.702  1.2209 -0.9837  0.6991
  731EMI     H513878   5.364   4.503   4.520  1.4592  3.2268  1.9033
  731EMI    C1'13879   5.263   4.191   4.846  0.7259 -0.8382 -0.3862
  731EMI    H1'13880   5.356   4.220   4.900 -1.0063 -0.7288  3.5960
  731EMI    H1'13881   5.173   4.186   4.899  2.8435 -1.9474 -3.3889
  731EMI    H1'13882   5.263   4.088   4.807  1.3511  1.6742  0.4517
  731EMI    C1"13883   5.071   4.489   4.484 -0.7348 -0.3260  0.3503
  731EMI    H1"13884   5.004   4.420   4.439 -0.2772  3.5465 -0.5045
  731EMI    H1"13885   5.125   4.534   4.406 -1.0421 -1.4651 -0.4181
  731EMI    C2"13886   4.984   4.586   4.566 -0.2762  0.0429 -0.3205
  731EMI    H2"13887   4.901   4.622   4.505  0.5367  0.1543 -0.0624
  731EMI    H2"13888   4.940   4.538   4.655  2.8653 -1.1397 -1.1593
  731EMI    H2"13889   5.051   4.677   4.596  1.0849  1.4253  1.7602
  732EMI     N113890   3.334   4.497   4.220 -0.2019  0.6123  0.2854
  732EMI     C213891   3.245   4.427   4.139 -0.4359 -0.5836 -0.0257
  732EMI     N313892   3.132   4.404   4.204  0.5862  0.2003  0.1077
  732EMI     C413893   3.157   4.446   4.332 -0.1761 -0.9715 -1.0629
  732EMI     C513894   3.273   4.515   4.344  0.3428 -0.5989 -0.6408
  732EMI     H213895   3.242   4.409   4.030  1.6040 -1.7913 -0.6161
  732EMI     H413896   3.085   4.430   4.412  0.7321  2.7054 -1.2127
  732EMI     H513897   3.315   4.556   4.440 -0.2984 -1.4495 -0.7404
  732EMI    C1'13898   3.008   4.335   4.157 -0.4478  0.2310  0.3427
  732EMI    H1'13899   3.026   4.292   4.059  0.1159 -1.9644 -0.6411
  732EMI    H1'13900   2.980   4.250   4.218  0.3920 -1.5109  0.0693
  732EMI    H1'13901   2.923   4.398   4.142  0.1417 -2.0068 -0.6605
  732EMI    C1"13902   3.467   4.536   4.193  0.5778 -0.6365  0.3804
  732EMI    H1"13903   3.493   4.578   4.285 -1.1057  1.7511 -1.3491
  732EMI    H1"13904   3.450   4.610   4.114 -0.8834 -0.1650  0.5573
  732EMI    C2"13905   3.560   4.426   4.146  0.6447  0.8283  0.2554
  732EMI    H2"13906   3.611   4.401   4.234 -0.6874 -0.9430  1.0410
  732EMI    H2"13907   3.501   4.350   4.104  0.7246  0.5298  0.8890
  732EMI    H2"13908   3.647   4.462   4.077  1.5246 -0.3528 -0.6343
  733EMI     N113909   5.931   3.054   3.188  0.0370 -0.1111 -0.7688
  733EMI     C213910   5.819   3.088   3.244 -0.7545 -0.4804  0.1529
  733EMI     N313911   5.804   3.219   3.255  0.3326  0.3788 -0.1987
  733EMI     C413912   5.927   3.275   3.217  0.3959  0.7900 -0.7346
  733EMI     C513913   6.001   3.173   3.169  0.6120 -0.1862  0.7298
  733EMI     H213914   5.740   3.019   3.282 -2.3040  1.6192 -0.3395
  733EMI     H413915   5.938   3.383   3.207 -2.3810 -2.5961 -1.2980
  733EMI     H513916   6.098   3.179   3.113  0.9614 -1.0274 -0.0647
  733EMI    C1'13917   5.688   3.290   3.307  0.4829 -0.6378  0.1389
  733EMI    H1'13918   5.656   3.256   3.405 -0.4755  1.1635  1.6668
  733EMI    H1'13919   5.696   3.397   3.295 -0.9693 -0.1606  2.5339
  733EMI    H1'13920   5.606   3.272   3.241  0.1110  1.4782  0.7022
  733EMI    C1"13921   5.989   2.924   3.161 -0.1291 -0.4632 -0.0901
  733EMI    H1"13922   5.931   2.850   3.212 -0.7637  0.7692  2.2477
  733EMI    H1"13923   6.094   2.924   3.199 -0.0005  2.8163  1.1109
  733EMI    C2"13924   5.988   2.892   3.015 -0.2812  0.1045 -0.4783
  733EMI    H2"13925   5.992   2.785   3.016  2.3869  1.3534  0.5243
  733EMI    H2"13926   5.896   2.914   2.965  0.8539  0.6333 -0.3103
  733EMI    H2"13927   6.081   2.947   2.985 -3.2228  4.8234 -0.5938
  734EMI     N113928   1.845   4.340   1.501 -0.1933 -0.1809 -0.4642
  734EMI     C213929   1.853   4.272   1.389  0.1852  0.6438 -0.0827
  734EMI     N313930   1.976   4.268   1.336 -0.4012  0.2994  0.2968
  734EMI     C413931   2.049   4.347   1.416  0.3086  0.2406  1.2002
  734EMI     C513932   1.976   4.380   1.521 -0.9836  0.4344 -0.2264
  734EMI     H213933   1.782   4.206   1.340  2.9189  1.6752 -0.1291
  734EMI     H413934   2.156   4.365   1.403  1.0579  1.0973 -1.1619
  734EMI     H513935   2.007   4.430   1.611 -0.2234 -1.7716  1.3871
  734EMI    C1'13936   2.017   4.227   1.202 -0.5910  0.8108 -0.0808
  734EMI    H1'13937   2.040   4.316   1.146 -1.0285 -0.7215  0.6807
  734EMI    H1'13938   2.105   4.168   1.206 -4.4085 -1.5193 -1.3092
  734EMI    H1'13939   1.943   4.178   1.144  1.6678 -0.3723 -0.7303
  734EMI    C1"13940   1.732   4.371   1.589 -0.3584 -0.0454  0.7597
  734EMI    H1"13941   1.680   4.463   1.558 -1.8477 -0.7764 -0.7687
  734EMI    H1"13942   1.763   4.387   1.691  0.2927 -0.3504  1.3696
  734EMI    C2"13943   1.633   4.256   1.586 -0.0596  0.0736  0.0219
  734EMI    H2"13944   1.606   4.230   1.483 -0.2494 -1.5768 -0.8275
  734EMI    H2"13945   1.676   4.164   1.637  0.1041  1.7802 -0.9054
  734EMI    H2"13946   1.545   4.290   1.632  1.4716  1.2427 -2.9678
  735EMI     N113947   3.551   0.728   2.575 -0.0379 -0.7698  0.2468
  735EMI     C213948   3.490   0.756   2.691  0.3350  0.2621  0.1749
  735EMI     N313949   3.457   0.887   2.693  0.7428 -1.0176 -0.3206
  735EMI     C413950   3.496   0.940   2.566  0.9226  0.6156 -0.3838
  735EMI     C513951   3.550   0.840   2.493  0.0242  0.5278 -0.5870
  735EMI     H213952   3.469   0.693   2.771 -0.1351  1.8915  0.7726
  735EMI     H413953   3.486   1.043   2.532 -1.2479  2.3313  0.8084
  735EMI     H513954   3.595   0.840   2.397 -1.5391 -1.4361 -0.8046
  735EMI    C1'13955   3.409   0.964   2.808 -0.5995 -0.2448  0.1965
  735EMI    H1'13956   3.319   1.025   2.789 -3.6220  0.0216  0.3145
  735EMI    H1'13957   3.387   0.892   2.891  0.7237  0.5374 -1.6985
  735EMI    H1'13958   3.487   1.036   2.848 -0.4466  0.4055  1.7071
  735EMI    C1"13959   3.611   0.600   2.519 -0.1916 -0.0354  0.2718
  735EMI    H1"13960   3.614   0.604   2.415 -2.7958  0.4285  1.6994
  735EMI    H1"13961   3.558   0.515   2.556 -0.9886  1.6236 -1.9032
  735EMI    C2"13962   3.753   0.592   2.574  1.1434  0.2831 -0.4980
  735EMI    H2"13963   3.818   0.670   2.536  0.2178 -0.4174  0.2918
  735EMI    H2"13964   3.744   0.599   2.676 -0.5990  0.5966 -2.4759
  735EMI    H2"13965   3.805   0.503   2.554  0.3996 -1.4170  1.1283
  736EMI     N113966   1.695   2.747   2.283  0.5381  0.0376  0.7402
  736EMI     C213967   1.715   2.637   2.344  0.6345  0.4815  0.0933
  736EMI     N313968   1.724   2.654   2.477  0.4044 -0.2871 -0.2430
  736EMI     C413969   1.703   2.791   2.493 -0.7476 -0.0136  0.1967
  736EMI     C513970   1.696   2.849   2.375  0.1265  0.2598  0.4975
  736EMI     H213971   1.726   2.546   2.287 -0.5749  0.8497 -2.0118
  736EMI     H413972   1.701   2.835   2.588 -0.8421  2.1224  2.5189
  736EMI     H513973   1.673   2.948   2.359 -1.3029 -0.7583 -1.2331
  736EMI    C1'13974   1.774   2.568   2.588  0.2038 -0.1963 -0.5961
  736EMI    H1'13975   1.826   2.625   2.666 -2.0665 -0.0272 -2.2129
  736EMI    H1'13976   1.694   2.511   2.632  0.5710  0.0416 -0.7431
  736EMI    H1'13977   1.852   2.503   2.546  2.4515  2.7996  1.8107
  736EMI    C1"13978   1.667   2.766   2.135  0.8007 -0.1061 -0.0906
  736EMI    H1"13979   1.591   2.847   2.117 -1.0151  1.5085 -0.7241
  736EMI    H1"13980   1.619   2.672   2.102 -0.9525 -2.4583 -0.7374
  736EMI    C2"13981   1.789   2.787   2.052  0.1081 -0.0436  0.4097
  736EMI    H2"13982   1.820   2.881   2.056  1.2661  0.1317  0.6642
  736EMI    H2"13983   1.858   2.709   2.091 -1.0855 -1.5296 -1.7529
  736EMI    H2"13984   1.763   2.756   1.950 -1.5923  1.2735 -1.1517
  737EMI     N113985   4.266   3.623   5.738 -0.7969 -0.4017 -0.3562
  737EMI     C213986   4.385   3.682   5.737  0.0849  0.4872  0.7249
  737EMI     N313987   4.374   3.812   5.764 -0.6557  0.2585  0.1738
  737EMI     C413988   4.245   3.834   5.805  0.4761 -0.3182  0.6983
  737EMI     C513989   4.180   3.721   5.786 -0.0543 -0.1448 -1.0457
  737EMI     H213990   4.482   3.650   5.704  2.5847 -1.9386  0.8547
  737EMI     H413991   4.203   3.935   5.825  0.8960 -0.5999 -0.9022
  737EMI     H513992   4.069   3.707   5.799 -1.9392  2.6554 -2.3088
  737EMI    C1'13993   4.480   3.918   5.777 -0.0406 -0.0921 -0.4825
  737EMI    H1'13994   4.439   4.023   5.773 -2.0249 -0.1407  0.2779
  737EMI    H1'13995   4.538   3.910   5.869 -1.3535  1.3370 -1.3202
  737EMI    H1'13996   4.550   3.914   5.694  1.2342  0.9501 -1.7059
  737EMI    C1"13997   4.226   3.483   5.705 -0.4936  0.4048  0.1343
  737EMI    H1"13998   4.231   3.463   5.603  2.7096 -4.3609 -1.1089
  737EMI    H1"13999   4.128   3.475   5.746  0.5670 -1.5795 -1.5377
  737EMI    C2"14000   4.332   3.381   5.770  0.0084  0.1930  0.5805
  737EMI    H2"14001   4.310   3.363   5.882 -0.8398 -2.6028 -0.2521
  737EMI    H2"14002   4.327   3.285   5.709 -0.3855  0.8639 -0.4213
  737EMI    H2"14003   4.434   3.417   5.752  1.2225 -0.0547  0.1508
  738EMI     N114004   4.346   0.840   4.849 -0.2758  0.1144 -0.2382
  738EMI     C214005   4.226   0.794   4.885 -0.1412 -0.2886 -0.0076
  738EMI     N314006   4.240   0.700   4.976  0.2343  0.4247  0.4231
  738EMI     C414007   4.371   0.680   4.996  0.8416  0.5866  0.1115
  738EMI     C514008   4.440   0.764   4.923  1.0028 -0.1979 -0.4743
  738EMI     H214009   4.129   0.840   4.859  0.5300 -0.8737 -2.7032
  738EMI     H414010   4.400   0.613   5.078  1.4778  3.0775  3.0656
  738EMI     H514011   4.548   0.774   4.926 -0.9720 -1.2459  2.0632
  738EMI    C1'14012   4.134   0.610   5.026  0.6661  0.2319 -0.3784
  738EMI    H1'14013   4.052   0.666   5.073  0.9077  1.0247 -0.9532
  738EMI    H1'14014   4.107   0.539   4.950  1.7581  1.7344 -1.6443
  738EMI    H1'14015   4.170   0.553   5.113 -0.2258  0.3786  3.5551
  738EMI    C1"14016   4.376   0.957   4.758 -0.2664 -0.7814 -0.1982
  738EMI    H1"14017   4.459   1.009   4.799  0.5251  0.3164  1.3553
  738EMI    H1"14018   4.295   1.029   4.756 -0.9509  1.9159  0.9652
  738EMI    C2"14019   4.424   0.903   4.620  0.2169  0.7546 -0.2674
  738EMI    H2"14020   4.495   0.826   4.624 -0.2946  0.8063 -1.0446
  738EMI    H2"14021   4.348   0.862   4.566  1.2342  1.1914 -0.0208
  738EMI    H2"14022   4.461   0.989   4.561  2.8862 -0.5474  2.0171
  739EMI     N114023   1.264   4.000   1.937 -0.3418 -0.4258 -0.4907
  739EMI     C214024   1.372   3.938   1.991  0.0787 -0.0598  0.8564
  739EMI     N314025   1.343   3.813   2.015  0.7030  0.3651 -1.0522
  739EMI     C414026   1.205   3.796   2.004  0.1157 -0.3288  0.3125
  739EMI     C514027   1.156   3.910   1.949 -0.8827 -0.0763 -0.1420
  739EMI     H214028   1.474   3.979   2.000  1.0085 -1.0556 -0.9802
  739EMI     H414029   1.137   3.710   2.033  1.2044 -0.9351 -2.1928
  739EMI     H514030   1.059   3.928   1.913  0.6300  0.8691  1.7616
  739EMI    C1'14031   1.428   3.695   2.045 -0.4873 -0.0389  0.1409
  739EMI    H1'14032   1.442   3.691   2.152 -0.1758  0.7136 -1.2181
  739EMI    H1'14033   1.394   3.597   2.014  2.6235 -3.8827 -0.9645
  739EMI    H1'14034   1.522   3.707   1.988  2.2733 -1.4849  0.2020
  739EMI    C1"14035   1.264   4.127   1.869  0.3135 -0.1363  0.1459
  739EMI    H1"14036   1.364   4.165   1.883  0.4213 -1.4869 -0.0803
  739EMI    H1"14037   1.194   4.196   1.915 -0.7354  0.0862  1.2083
  739EMI    C2"14038   1.227   4.103   1.719  0.1040 -0.3912  0.1673
  739EMI    H2"14039   1.293   4.039   1.668  1.4023  2.9151 -1.4319
  739EMI    H2"14040   1.121   4.062   1.703 -1.7280 -2.1757 -1.2897
  739EMI    H2"14041   1.227   4.197   1.655 -2.3122 -1.1672 -2.9284
  740EMI     N114042   3.935   0.046   5.497 -0.0714 -0.1881 -0.6106
  740EMI     C214043   3.955   0.057   5.363  0.3294  0.0867 -0.0328
  740EMI     N314044   3.887  -0.041   5.305 -0.5712  0.4489 -0.0859
  740EMI     C414045   3.813  -0.109   5.404 -0.6494 -0.5323 -0.6398
  740EMI     C514046   3.847  -0.064   5.521  0.2666 -0.1195 -0.2760
  740EMI     H214047   4.029   0.119   5.317 -1.2130 -1.2299 -0.0986
  740EMI     H414048   3.767  -0.204   5.390  3.2329  0.5982  1.1897
  740EMI     H514049   3.810  -0.106   5.622 -1.9611 -1.3414  1.4957
  740EMI    C1'14050   3.875  -0.075   5.162  0.3578 -0.2299  0.1440
  740EMI    H1'14051   3.774  -0.068   5.131  1.8001 -0.8493 -2.2601
  740EMI    H1'14052   3.923   0.007   5.116  1.8699 -0.5791  2.3299
  740EMI    H1'14053   3.916  -0.177   5.143 -2.6602 -2.3598  1.3740
  740EMI    C1"14054   3.990   0.133   5.607 -0.1927 -0.1224  0.1463
  740EMI    H1"14055   3.909   0.165   5.666  3.2058 -1.3837 -2.3732
  740EMI    H1"14056   4.032   0.223   5.558  1.3417  1.4307  0.3198
  740EMI    C2"14057   4.100   0.061   5.683  0.2452 -0.3263 -0.7173
  740EMI    H2"14058   4.072  -0.044   5.712 -0.7925 -4.8559 -1.0553
  740EMI    H2"14059   4.195   0.061   5.635 -1.3332  0.2288  1.5724
  740EMI    H2"14060   4.117   0.122   5.767  0.6853 -0.2349 -0.0966
  741EMI     N114061   1.869   1.096   6.185  0.0337 -0.6210 -0.0843
  741EMI     C214062   1.884   1.101   6.316 -0.2606 -0.1973 -0.1635
  741EMI     N314063   2.012   1.074   6.342  0.1757  0.3716  0.5908
  741EMI     C414064   2.076   1.041   6.223  0.0002  0.2431 -0.2816
  741EMI     C514065   1.988   1.057   6.128 -0.9080  0.2379  0.3360
  741EMI     H214066   1.805   1.128   6.382  1.2413 -0.8152 -0.3063
  741EMI     H414067   2.171   1.006   6.228 -0.5031  1.1960  0.2708
  741EMI     H514068   2.015   1.049   6.027  0.8451 -0.9053  2.4896
  741EMI    C1'14069   2.073   1.057   6.474 -0.7237 -0.3669  0.0078
  741EMI    H1'14070   2.003   1.086   6.559  0.7644  1.0403 -0.5295
  741EMI    H1'14071   2.103   0.945   6.490  4.0100 -3.6623  1.7527
  741EMI    H1'14072   2.164   1.109   6.470 -2.3292  1.4299 -1.5325
  741EMI    C1"14073   1.748   1.134   6.103  0.9268 -0.2735 -0.6227
  741EMI    H1"14074   1.706   1.051   6.050 -1.6247  0.3774  2.2627
  741EMI    H1"14075   1.776   1.221   6.031  0.8351  0.9791  0.6456
  741EMI    C2"14076   1.638   1.196   6.192 -1.0058  0.0744  0.5960
  741EMI    H2"14077   1.593   1.114   6.243  1.3131 -0.1618  3.8496
  741EMI    H2"14078   1.685   1.266   6.258 -1.6682  0.7812  0.6367
  741EMI    H2"14079   1.570   1.252   6.135  0.8076 -0.5713 -0.7777
  742EMI     N114080   3.536   6.064   1.230  0.2371 -0.0049  0.4671
  742EMI     C214081   3.649   6.132   1.244  0.3163  0.5512 -0.0891
  742EMI     N314082   3.698   6.112   1.369  0.4070  0.3513 -0.2198
  742EMI     C414083   3.611   6.018   1.429 -0.5620 -0.4156 -0.2794
  742EMI     C514084   3.515   5.987   1.341 -0.5341 -0.7605 -0.2565
  742EMI     H214085   3.691   6.196   1.167  0.7440 -0.7840 -2.2059
  742EMI     H414086   3.634   5.971   1.522  0.8586 -0.9840  0.4782
  742EMI     H514087   3.438   5.919   1.357 -0.9581  1.5638 -1.2447
  742EMI    C1'14088   3.815   6.167   1.435  0.1546 -0.0267 -0.2108
  742EMI    H1'14089   3.806   6.155   1.538 -2.8715  1.9689  1.2839
  742EMI    H1'14090   3.912   6.122   1.405  0.4654 -1.2819  1.6296
  742EMI    H1'14091   3.813   6.268   1.398 -2.2640  2.0068  2.4311
  742EMI    C1"14092   3.437   6.076   1.124  0.9002  0.0405  0.2698
  742EMI    H1"14093   3.396   6.173   1.115 -2.2761 -1.6875 -1.4991
  742EMI    H1"14094   3.352   6.005   1.138  0.1473 -0.5611 -0.6310
  742EMI    C2"14095   3.516   6.037   0.990 -0.2400 -0.7135 -0.4994
  742EMI    H2"14096   3.557   5.937   1.005 -0.7315 -4.2173 -0.8246
  742EMI    H2"14097   3.452   6.026   0.905 -2.6365  0.0855 -1.9428
  742EMI    H2"14098   3.602   6.095   0.969  0.4081  1.3053  1.9629
  743EMI     N114099   0.430   3.067   0.970  0.0975  0.0373  0.1672
  743EMI     C214100   0.300   3.021   0.978 -0.4093 -0.1197 -0.1530
  743EMI     N314101   0.216   3.114   0.932  0.0409  0.2334 -0.1655
  743EMI     C414102   0.295   3.217   0.878  0.0422 -0.2116 -0.3374
  743EMI     C514103   0.424   3.186   0.903 -0.7669  0.0655 -0.6177
  743EMI     H214104   0.271   2.923   1.019  0.7550 -1.9769 -0.5277
  743EMI     H414105   0.250   3.299   0.829 -1.7829 -0.5559  1.3170
  743EMI     H514106   0.511   3.247   0.884 -0.7705 -0.8075  0.7780
  743EMI    C1'14107   0.072   3.111   0.913  0.6972 -0.2780 -0.0985
  743EMI    H1'14108   0.041   3.220   0.926 -0.2263  2.0930  0.6094
  743EMI    H1'14109   0.060   3.074   0.805  0.4763 -0.3654  0.1204
  743EMI    H1'14110   0.019   3.040   0.978 -2.1753 -0.6278 -0.3672
  743EMI    C1"14111   0.553   3.035   1.042 -0.3255 -0.1352  0.5319
  743EMI    H1"14112   0.559   3.092   1.138  0.3532  0.4309  0.0060
  743EMI    H1"14113   0.646   3.047   0.982  1.2273  2.4752  2.2546
  743EMI    C2"14114   0.555   2.889   1.091  0.8319  0.5694 -0.0644
  743EMI    H2"14115   0.532   2.825   1.004  0.3987  1.8867 -1.7192
  743EMI    H2"14116   0.639   2.869   1.148 -1.2758 -0.1804  2.1371
  743EMI    H2"14117   0.470   2.878   1.157 -2.1081  0.0739  1.0883
  744EMI     N114118   1.455   3.988   3.444  0.3770  0.2541 -0.4150
  744EMI     C214119   1.334   3.944   3.394 -0.1797 -0.0395  0.7556
  744EMI     N314120   1.239   4.034   3.434 -0.0313  0.1505 -0.2972
  744EMI     C414121   1.302   4.126   3.518  0.3753 -0.1400 -0.1209
  744EMI     C514122   1.432   4.095   3.521 -0.2299  0.7354 -0.1249
  744EMI     H214123   1.326   3.853   3.337  0.7655  1.9258  2.3169
  744EMI     H414124   1.257   4.203   3.577 -1.7545 -1.9477 -0.1177
  744EMI     H514125   1.494   4.141   3.590  0.6421 -1.0975 -0.4277
  744EMI    C1'14126   1.092   4.018   3.431  0.4187 -0.4542 -0.7215
  744EMI    H1'14127   1.038   4.102   3.473 -0.3963 -0.6991 -0.1122
  744EMI    H1'14128   1.053   4.003   3.329 -2.7729 -0.5581  0.8627
  744EMI    H1'14129   1.068   3.935   3.500 -1.3465 -1.5288  0.5467
  744EMI    C1"14130   1.587   3.922   3.439  0.5477 -0.1402 -0.3639
  744EMI    H1"14131   1.665   3.996   3.415  1.5462  0.8075 -3.1785
  744EMI    H1"14132   1.583   3.853   3.347 -0.6788  2.3099 -0.0547
  744EMI    C2"14133   1.607   3.836   3.571  0.4570 -0.1975  0.1653
  744EMI    H2"14134   1.694   3.769   3.560 -3.7794  1.2555 -0.0837
  744EMI    H2"14135   1.623   3.897   3.653  1.2077 -3.3081  0.7119
  744EMI    H2"14136   1.516   3.783   3.587 -0.4592 -0.8060 -0.6936
  745EMI     N114137   3.251   1.925   2.726  0.1539  0.4130  0.5226
  745EMI     C214138   3.277   2.047   2.773 -0.2460 -0.1423  0.4162
  745EMI     N314139   3.269   2.141   2.678  0.9500  0.1654  0.2099
  745EMI     C414140   3.224   2.081   2.564 -0.1401 -0.0221  0.0812
  745EMI     C514141   3.215   1.949   2.590  0.1412  0.8609 -0.7047
  745EMI     H214142   3.310   2.055   2.875  1.6515 -0.8622  1.9105
  745EMI     H414143   3.197   2.134   2.478 -0.3665  1.0347  1.9882
  745EMI     H514144   3.188   1.872   2.520 -0.6183 -0.7396 -0.2452
  745EMI    C1'14145   3.315   2.282   2.685 -0.0165  0.0120 -0.9412
  745EMI    H1'14146   3.257   2.328   2.766  0.2955 -0.1057  2.9206
  745EMI    H1'14147   3.425   2.285   2.703  0.5265 -0.3450  1.1678
  745EMI    H1'14148   3.290   2.332   2.593  2.8366 -0.7077 -1.2092
  745EMI    C1"14149   3.254   1.798   2.789  0.3037 -0.4746 -0.1526
  745EMI    H1"14150   3.208   1.729   2.721  1.7431  0.3463  1.1594
  745EMI    H1"14151   3.202   1.803   2.884  0.8651  1.2916  0.9510
  745EMI    C2"14152   3.394   1.756   2.825 -0.5103  0.4370  0.1831
  745EMI    H2"14153   3.394   1.677   2.901 -0.7832  1.2287  0.9355
  745EMI    H2"14154   3.460   1.720   2.740 -0.3945  0.2360  0.6954
  745EMI    H2"14155   3.437   1.835   2.885 -0.6292  1.5498  0.7461
  746EMI     N114156   1.591   5.104   3.482  0.5006 -0.4808  0.2004
  746EMI     C214157   1.551   5.151   3.362  0.0171 -0.3781  0.3679
  746EMI     N314158   1.420   5.159   3.356 -0.1282  0.3972  0.0787
  746EMI     C414159   1.371   5.113   3.474  0.3118  0.2284  0.3332
  746EMI     C514160   1.474   5.081   3.552 -0.0846  0.4794  0.0963
  746EMI     H214161   1.623   5.191   3.286 -0.0266  2.5203  1.6154
  746EMI     H414162   1.268   5.113   3.497  0.2897  1.7034 -5.3009
  746EMI     H514163   1.469   5.054   3.659 -0.4145  1.2239  0.7896
  746EMI    C1'14164   1.329   5.200   3.249  0.5506 -0.0884  0.1147
  746EMI    H1'14165   1.378   5.273   3.188  0.6627 -1.4263 -1.1065
  746EMI    H1'14166   1.304   5.104   3.202  1.5778 -2.2891 -0.1800
  746EMI    H1'14167   1.232   5.231   3.296 -2.3530 -1.2220  0.1908
  746EMI    C1"14168   1.723   5.092   3.546 -0.0975  0.3350 -0.3207
  746EMI    H1"14169   1.725   5.148   3.638  1.5049  1.8903 -2.1599
  746EMI    H1"14170   1.792   5.145   3.480 -1.0556  0.6269  3.4636
  746EMI    C2"14171   1.774   4.947   3.571 -0.6614  0.5834 -0.2492
  746EMI    H2"14172   1.802   4.894   3.477 -2.1931 -1.8882 -0.2294
  746EMI    H2"14173   1.854   4.944   3.646  0.7931 -3.4891 -0.3898
  746EMI    H2"14174   1.694   4.892   3.616 -0.1356 -0.8910 -0.8692
  747EMI     N114175   4.087   1.773   4.043 -0.2210  0.0885 -0.2160
  747EMI     C214176   4.154   1.751   3.926  0.2148  0.7338 -0.0528
  747EMI     N314177   4.156   1.618   3.897 -0.5749 -0.3496  0.3671
  747EMI     C414178   4.084   1.552   3.993  0.2892  0.3023 -0.5736
  747EMI     C514179   4.042   1.647   4.079 -0.2988  0.0296  0.0932
  747EMI     H214180   4.203   1.827   3.867 -2.0307  0.3580  0.1375
  747EMI     H414181   4.064   1.448   4.005  1.5591 -0.4918 -0.0371
  747EMI     H514182   3.981   1.625   4.167  0.3678 -0.1231  0.4147
  747EMI    C1'14183   4.198   1.547   3.782 -0.0877 -0.5601 -0.0697
  747EMI    H1'14184   4.301   1.572   3.741  1.0634 -4.0861  0.5991
  747EMI    H1'14185   4.209   1.447   3.820  1.7125 -0.0141  0.9183
  747EMI    H1'14186   4.133   1.565   3.696  0.4265 -0.0140 -0.7727
  747EMI    C1"14187   4.042   1.896   4.112 -0.2013  0.6164  0.2171
  747EMI    H1"14188   3.939   1.894   4.136  1.7678 -0.9099 -0.0459
  747EMI    H1"14189   4.077   1.975   4.040  2.2047  0.5734  0.0369
  747EMI    C2"14190   4.114   1.902   4.244  0.0863 -0.3463 -0.3036
  747EMI    H2"14191   4.066   1.977   4.299 -0.5883 -0.7394 -0.4824
  747EMI    H2"14192   4.094   1.803   4.293 -1.6986  0.2855 -0.8575
  747EMI    H2"14193   4.217   1.929   4.238  2.0435  0.3537 -2.1736
  748EMI     N114194   5.911   1.198   3.256 -0.4413 -0.0836  0.2266
  748EMI     C214195   5.882   1.246   3.375 -0.0670 -0.3691 -0.1306
  748EMI     N314196   5.971   1.196   3.467  0.3953  0.5493 -0.1298
  748EMI     C414197   6.063   1.119   3.404 -0.1271  0.0878 -0.2272
  748EMI     C514198   6.020   1.117   3.274  0.8562 -0.1551  0.8164
  748EMI     H214199   5.791   1.299   3.382 -0.9454 -1.8585 -0.1533
  748EMI     H414200   6.139   1.058   3.455 -2.0993 -2.6196  2.7282
  748EMI     H514201   6.059   1.064   3.192  0.4502 -0.1533 -1.4483
  748EMI    C1'14202   5.970   1.207   3.614  0.3391  0.1678  0.0359
  748EMI    H1'14203   6.052   1.162   3.671 -0.0988 -0.1014 -3.3118
  748EMI    H1'14204   5.964   1.316   3.637  1.0237  1.6924 -0.6871
  748EMI    H1'14205   5.881   1.153   3.644  0.2146  1.0866  1.8274
  748EMI    C1"14206   5.837   1.217   3.128 -0.4156  0.5580 -0.4814
  748EMI    H1"14207   5.733   1.232   3.146 -1.4802  0.9229 -0.0950
  748EMI    H1"14208   5.862   1.126   3.071  0.4843  0.6901 -1.3432
  748EMI    C2"14209   5.893   1.339   3.057  0.2712 -0.2654  0.3576
  748EMI    H2"14210   5.887   1.426   3.119 -2.8326 -0.7858 -1.0928
  748EMI    H2"14211   6.002   1.320   3.043  2.4919  1.3879 -1.0144
  748EMI    H2"14212   5.829   1.362   2.967 -2.7096 -1.1795 -2.8734
  749EMI     N114213   6.151   0.590   0.511 -0.9103  0.2261  0.2215
  749EMI     C214214   6.207   0.716   0.501  0.3278 -0.7137 -0.6452
  749EMI     N314215   6.137   0.787   0.411 -0.1115 -0.1707  0.1725
  749EMI     C414216   6.032   0.703   0.362  0.3055  0.1790 -0.2676
  749EMI     C514217   6.047   0.583   0.415 -0.0205 -0.0371  0.3598
  749EMI     H214218   6.295   0.753   0.556  0.9728  1.0384  0.6672
  749EMI     H414219   5.955   0.724   0.282  1.0834  1.6703  3.3866
  749EMI     H514220   5.975   0.502   0.394 -0.9814 -0.9605 -1.1636
  749EMI    C1'14221   6.163   0.928   0.366  0.2537  0.7072 -0.0527
  749EMI    H1'14222   6.257   0.960   0.408 -3.3142  0.4195  1.7287
  749EMI    H1'14223   6.169   0.941   0.260  0.8780  0.0826 -0.1523
  749EMI    H1'14224   6.090   0.997   0.409  0.4175  1.2166 -0.0326
  749EMI    C1"14225   6.182   0.469   0.590 -1.0245 -0.5198 -0.3174
  749EMI    H1"14226   6.097   0.426   0.627  1.5537  0.2774 -0.1107
  749EMI    H1"14227   6.256   0.505   0.663 -0.1580  1.5820  2.8294
  749EMI    C2"14228   6.255   0.376   0.504 -0.7261 -0.8821 -0.6203
  749EMI    H2"14229   6.320   0.426   0.434 -0.7187  1.4451 -1.2016
  749EMI    H2"14230   6.305   0.308   0.566 -2.9115  2.5665 -0.4755
  749EMI    H2"14231   6.183   0.331   0.434  0.4720  1.9634  0.5251
  750EMI     N114232   1.195   1.498   6.124 -0.6167 -0.1681  0.0949
  750EMI     C214233   1.279   1.477   6.026  0.1639 -0.4429 -0.3793
  750EMI     N314234   1.270   1.352   5.983 -0.6038  0.0545 -0.0019
  750EMI     C414235   1.183   1.284   6.062  0.0735 -0.3306  0.1800
  750EMI     C514236   1.134   1.378   6.149 -0.2273  0.1842  0.6025
  750EMI     H214237   1.344   1.553   5.987 -2.9338 -0.7247 -2.0103
  750EMI     H414238   1.163   1.176   6.055  0.5210 -3.9843  0.6930
  750EMI     H514239   1.062   1.360   6.225  0.4304  0.4253  1.4346
  750EMI    C1'14240   1.359   1.289   5.879 -0.5420 -0.5985  0.4734
  750EMI    H1'14241   1.464   1.321   5.892 -0.6991 -1.5863  1.0561
  750EMI    H1'14242   1.369   1.178   5.875 -0.5891 -0.9074  0.5543
  750EMI    H1'14243   1.330   1.318   5.780 -2.4102  2.5067  1.1719
  750EMI    C1"14244   1.169   1.620   6.197 -0.3120 -0.6893  0.1163
  750EMI    H1"14245   1.256   1.679   6.222 -0.6330  1.6520 -0.5494
  750EMI    H1"14246   1.112   1.610   6.290  3.4175  0.0443 -1.4960
  750EMI    C2"14247   1.081   1.715   6.105  0.7971 -0.8806  0.3665
  750EMI    H2"14248   1.128   1.732   6.005  0.1456  0.8255 -2.8104
  750EMI    H2"14249   0.982   1.681   6.090 -1.1101 -1.8128  0.3001
  750EMI    H2"14250   1.077   1.815   6.148 -2.6180  0.7241 -2.1947
  751EMI     N114251   2.823   3.097   1.880  0.1546  0.3363 -0.1403
  751EMI     C214252   2.885   3.197   1.819  0.1640  0.0281 -0.2723
  751EMI     N314253   2.793   3.292   1.793  0.1732  0.1076 -0.5935
  751EMI     C414254   2.669   3.245   1.831  0.5978 -0.4904 -0.3919
  751EMI     C514255   2.688   3.121   1.883  0.2976 -0.7134 -0.2033
  751EMI     H214256   2.987   3.212   1.793 -1.8030 -0.6041 -1.6388
  751EMI     H414257   2.570   3.299   1.846 -0.4992  0.8286  0.7192
  751EMI     H514258   2.614   3.061   1.933 -0.5654  1.7548  1.0900
  751EMI    C1'14259   2.821   3.418   1.733 -0.6370 -0.4969  0.0024
  751EMI    H1'14260   2.851   3.486   1.813  1.2513  1.0635 -2.4672
  751EMI    H1'14261   2.903   3.410   1.661 -1.8047  0.4070  1.2087
  751EMI    H1'14262   2.725   3.463   1.692 -1.4169  1.6208  0.7182
  751EMI    C1"14263   2.881   2.971   1.935  0.1246  0.7827 -0.3878
  751EMI    H1"14264   2.868   2.978   2.045 -1.9146 -0.8160 -0.1733
  751EMI    H1"14265   2.983   2.968   1.912 -0.9508 -1.9609  0.6039
  751EMI    C2"14266   2.810   2.849   1.872 -0.6028 -0.2770  0.2896
  751EMI    H2"14267   2.819   2.834   1.768  0.0889  0.4328  0.6095
  751EMI    H2"14268   2.846   2.752   1.917  3.6953  0.0838 -0.4629
  751EMI    H2"14269   2.703   2.844   1.892 -2.3942  0.4829 -2.0610
  752EMI     N114270   1.900   0.095   1.866 -0.4902  0.8173  0.1066
  752EMI     C214271   1.995   0.183   1.839 -0.5381  0.5386  0.0900
  752EMI     N314272   1.983   0.230   1.717  0.1865  0.3876 -0.7539
  752EMI     C414273   1.874   0.165   1.660 -0.4770  0.1413  0.2153
  752EMI     C514274   1.815   0.085   1.753 -0.2881  0.2110  0.3628
  752EMI     H214275   2.077   0.214   1.908 -1.7043  0.2496  1.2973
  752EMI     H414276   1.836   0.176   1.561  1.2318 -0.4833  1.9402
  752EMI     H514277   1.737   0.015   1.742 -1.3125 -0.2674 -0.6630
  752EMI    C1'14278   2.072   0.321   1.657  0.9287  0.2214 -0.5760
  752EMI    H1'14279   2.089   0.298   1.551 -0.4934  0.0789 -1.1042
  752EMI    H1'14280   2.029   0.415   1.682  4.1199  0.6546  0.1212
  752EMI    H1'14281   2.155   0.316   1.725 -0.3944 -0.1880 -0.6778
  752EMI    C1"14282   1.883   0.008   1.989 -0.7733  0.1395  0.1798
  752EMI    H1"14283   1.977  -0.032   2.014  0.7392  0.3274 -2.5107
  752EMI    H1"14284   1.817  -0.073   1.952  1.7972  2.2416 -1.1156
  752EMI    C2"14285   1.824   0.083   2.110  0.3101 -0.1835 -0.6061
  752EMI    H2"14286   1.809   0.000   2.179  0.5140 -2.6147  1.2903
  752EMI    H2"14287   1.891   0.154   2.155 -2.3939  0.0836 -1.9321
  752EMI    H2"14288   1.729   0.137   2.092  0.7885  1.1299  0.7564
  753EMI     N114289   4.494   3.902   1.885  0.2300 -0.1760 -0.4500
  753EMI     C214290   4.419   4.010   1.915  0.5272 -0.3854 -0.0996
  753EMI     N314291   4.334   4.034   1.817 -0.6197  0.7245  0.0990
  753EMI     C414292   4.345   3.928   1.733  0.1352  0.0443  0.4384
  753EMI     C514293   4.444   3.850   1.768  0.2661 -0.1934  0.8360
  753EMI     H214294   4.432   4.095   1.986 -3.1317  2.1079  1.3349
  753EMI     H414295   4.281   3.910   1.649 -2.4497 -1.4149  1.0947
  753EMI     H514296   4.470   3.754   1.732  0.3036 -0.4928 -2.6591
  753EMI    C1'14297   4.222   4.134   1.805  0.0635 -0.4444  0.5640
  753EMI    H1'14298   4.165   4.141   1.900  1.6154 -2.4355 -0.1170
  753EMI    H1'14299   4.267   4.232   1.793 -1.6417  0.9069 -0.7005
  753EMI    H1'14300   4.150   4.104   1.731 -3.3917 -0.4525  1.4143
  753EMI    C1"14301   4.590   3.830   1.967  0.2794 -0.4210 -0.7413
  753EMI    H1"14302   4.616   3.745   1.915 -1.1649 -0.4272 -0.7796
  753EMI    H1"14303   4.547   3.794   2.063 -1.9876 -0.3260  1.3912
  753EMI    C2"14304   4.717   3.913   1.999 -0.9145 -0.0997 -0.4018
  753EMI    H2"14305   4.782   3.911   1.916 -0.5540 -1.0694  0.6029
  753EMI    H2"14306   4.706   4.009   2.041  0.2426  0.7070  1.4617
  753EMI    H2"14307   4.776   3.848   2.062 -1.9154  1.7614 -0.8916
  754EMI     N114308   4.341   4.198   6.018  0.6213 -0.2066 -0.5049
  754EMI     C214309   4.305   4.276   5.917  0.4834  0.5721  0.2996
  754EMI     N314310   4.180   4.241   5.878  0.0193 -0.0039 -0.7650
  754EMI     C414311   4.137   4.149   5.966  0.0599  0.9640 -0.6377
  754EMI     C514312   4.230   4.113   6.054  0.3546 -0.7799  0.2698
  754EMI     H214313   4.347   4.368   5.886  0.5476 -0.0748  3.1867
  754EMI     H414314   4.032   4.125   5.963  1.1717  1.5419 -1.3678
  754EMI     H514315   4.217   4.051   6.139 -0.7460 -0.4432  0.3927
  754EMI    C1'14316   4.083   4.291   5.778 -0.1238 -0.2648  0.3591
  754EMI    H1'14317   4.003   4.344   5.831  1.7619  1.2762  0.2929
  754EMI    H1'14318   4.132   4.362   5.710  0.3794  0.8977  0.8477
  754EMI    H1'14319   4.055   4.203   5.717 -0.0393  2.1420  0.8710
  754EMI    C1"14320   4.467   4.182   6.088 -0.4159 -0.0579  0.0375
  754EMI    H1"14321   4.527   4.268   6.059  0.1002 -0.0402  0.2303
  754EMI    H1"14322   4.520   4.100   6.055 -0.8324  1.4620  1.1682
  754EMI    C2"14323   4.452   4.162   6.240 -0.5457 -0.1474  0.0638
  754EMI    H2"14324   4.547   4.115   6.278  2.3278 -1.7372 -0.5854
  754EMI    H2"14325   4.429   4.255   6.291 -3.3004  1.9438 -1.7030
  754EMI    H2"14326   4.377   4.086   6.257  2.6510  0.4316 -2.0429
  755EMI     N114327   0.504   3.052   0.536  0.6487 -0.2146 -0.2398
  755EMI     C214328   0.623   3.117   0.520 -0.0720  0.7792 -0.0431
  755EMI     N314329   0.718   3.044   0.577 -0.8919  0.0326 -1.0343
  755EMI     C414330   0.662   2.931   0.637  0.2113 -0.2834  0.4508
  755EMI     C514331   0.529   2.937   0.613  0.3348 -0.5550  0.6993
  755EMI     H214332   0.637   3.199   0.456  0.3299 -0.7335  2.7768
  755EMI     H414333   0.708   2.855   0.700  2.0619 -2.9831 -1.9532
  755EMI     H514334   0.459   2.865   0.651 -2.7203 -1.2254  2.2213
  755EMI    C1'14335   0.869   3.077   0.585 -0.4520 -0.1471 -0.3913
  755EMI    H1'14336   0.901   3.137   0.498 -0.5090  2.2592 -0.9325
  755EMI    H1'14337   0.904   3.122   0.679 -0.0533 -0.1440 -0.8575
  755EMI    H1'14338   0.922   2.979   0.562  0.3430 -0.1990  0.7401
  755EMI    C1"14339   0.384   3.067   0.458 -0.5114  0.4585  0.4866
  755EMI    H1"14340   0.319   2.980   0.470 -0.5844 -1.0526  1.9594
  755EMI    H1"14341   0.407   3.070   0.346 -0.5807 -0.1598 -1.1854
  755EMI    C2"14342   0.305   3.190   0.508  0.3636 -0.3167  0.0315
  755EMI    H2"14343   0.227   3.220   0.435 -3.3092 -2.9499 -1.7250
  755EMI    H2"14344   0.252   3.167   0.597 -0.3727  1.0408  2.3248
  755EMI    H2"14345   0.371   3.267   0.533 -3.0517 -1.3022 -3.0419
  756EMI     N114346   1.870   2.158   4.606 -0.2628  0.3263 -0.6279
  756EMI     C214347   1.953   2.068   4.549  0.5472  0.8036  0.1579
  756EMI     N314348   2.072   2.122   4.514 -0.2410  0.4638  0.4007
  756EMI     C414349   2.067   2.249   4.558 -0.2593  0.2207  0.4991
  756EMI     C514350   1.946   2.270   4.614 -0.5668  0.0642  0.2272
  756EMI     H214351   1.935   1.964   4.528  0.6102  0.6924 -0.7464
  756EMI     H414352   2.148   2.324   4.560  1.5173  2.0930 -1.4074
  756EMI     H514353   1.918   2.354   4.673  1.5568 -0.4676  0.5145
  756EMI    C1'14354   2.191   2.072   4.456  0.0257  0.6273  0.6288
  756EMI    H1'14355   2.162   1.997   4.384  2.0850  0.9438  1.3718
  756EMI    H1'14356   2.243   2.147   4.397  1.6219  0.6009  3.9758
  756EMI    H1'14357   2.259   2.023   4.536  1.1208  1.4211  1.4358
  756EMI    C1"14358   1.737   2.152   4.664  0.3028  0.6373  0.5546
  756EMI    H1"14359   1.664   2.133   4.579 -0.8217 -1.3725 -0.5526
  756EMI    H1"14360   1.712   2.254   4.694 -1.6487 -0.2296  1.0974
  756EMI    C2"14361   1.734   2.052   4.777  0.2930 -0.1465  0.5053
  756EMI    H2"14362   1.630   2.027   4.801 -0.7325 -0.6058  1.9091
  756EMI    H2"14363   1.786   1.957   4.749  0.9454 -1.4077 -1.4273
  756EMI    H2"14364   1.772   2.095   4.863 -2.5717  0.3945 -1.5087
  757EMI     N114365   5.244   3.754   0.547 -0.3747  0.1120  0.2949
  757EMI     C214366   5.245   3.888   0.560 -0.0073 -0.6066 -0.1546
  757EMI     N314367   5.364   3.937   0.533  0.4267 -0.2950  0.3335
  757EMI     C414368   5.438   3.834   0.472  0.0980 -0.0708  1.1321
  757EMI     C514369   5.365   3.721   0.485 -0.1859  0.2278  0.2430
  757EMI     H214370   5.162   3.955   0.581  0.8286  1.2718  1.3052
  757EMI     H414371   5.537   3.840   0.427  3.9814  2.4331 -0.4822
  757EMI     H514372   5.407   3.623   0.457 -0.4166 -1.0500  0.5679
  757EMI    C1'14373   5.400   4.080   0.522 -0.2651 -0.0449 -0.1483
  757EMI    H1'14374   5.488   4.090   0.583 -0.1267 -0.0953  1.0392
  757EMI    H1'14375   5.424   4.100   0.420  0.1133  1.6270  0.6850
  757EMI    H1'14376   5.319   4.149   0.565 -1.0795  2.4087  1.8498
  757EMI    C1"14377   5.152   3.652   0.602 -0.8323 -0.1721  0.5342
  757EMI    H1"14378   5.175   3.559   0.550 -2.3956 -2.3238 -0.3233
  757EMI    H1"14379   5.049   3.676   0.566 -1.1910 -4.8861 -0.9126
  757EMI    C2"14380   5.168   3.620   0.750 -0.0452 -0.1380  0.4991
  757EMI    H2"14381   5.159   3.703   0.817 -0.5931 -1.5479  1.2803
  757EMI    H2"14382   5.088   3.550   0.783 -2.3320 -0.8423 -0.4985
  757EMI    H2"14383   5.272   3.589   0.753  0.5961  1.7102 -1.7868
  758EMI     N114384   0.671   1.307   4.478  0.1585 -0.0037  0.2567
  758EMI     C214385   0.697   1.326   4.606  0.1296  0.3171  0.5673
  758EMI     N314386   0.813   1.388   4.623 -0.6304  0.0165  0.4055
  758EMI     C414387   0.872   1.397   4.499 -0.0412 -0.2317  0.2666
  758EMI     C514388   0.779   1.355   4.412 -0.1090  0.0754 -0.3180
  758EMI     H214389   0.630   1.293   4.686 -0.4023 -2.3114 -1.9963
  758EMI     H414390   0.973   1.434   4.477 -1.5656  0.2206  0.2533
  758EMI     H514391   0.794   1.352   4.303  2.2113 -1.0159 -1.5721
  758EMI    C1'14392   0.878   1.433   4.748  0.5936  0.2395  0.0750
  758EMI    H1'14393   0.983   1.436   4.730 -2.5675  1.6755  0.4410
  758EMI    H1'14394   0.854   1.540   4.767 -1.6211  0.9076 -0.3369
  758EMI    H1'14395   0.860   1.372   4.831  3.0230  0.8818  2.4170
  758EMI    C1"14396   0.547   1.262   4.415 -0.6396  0.5284  0.2636
  758EMI    H1"14397   0.503   1.165   4.448 -1.9903 -4.7460 -0.6451
  758EMI    H1"14398   0.574   1.245   4.311  0.9953  0.4410  0.2705
  758EMI    C2"14399   0.446   1.381   4.425 -0.3623 -0.1446  0.2463
  758EMI    H2"14400   0.364   1.382   4.349  0.1673  2.0319 -1.7934
  758EMI    H2"14401   0.412   1.387   4.527  2.9372 -0.0654 -2.2443
  758EMI    H2"14402   0.511   1.472   4.415  2.7747 -0.2374 -1.4123
  759EMI     N114403   1.734   0.177   0.910  0.3988 -0.2773 -0.3925
  759EMI     C214404   1.675   0.136   0.797  0.9096 -0.1862 -0.8508
  759EMI     N314405   1.544   0.109   0.818 -0.1060  0.4356 -0.0434
  759EMI     C414406   1.523   0.120   0.950  0.1223  0.3875  0.5387
  759EMI     C514407   1.638   0.169   1.009  0.0877 -0.6471 -0.3154
  759EMI     H214408   1.729   0.135   0.696 -0.5123  0.0202 -2.7188
  759EMI     H414409   1.431   0.110   1.013 -1.3071 -1.0756  1.3986
  759EMI     H514410   1.666   0.193   1.110 -1.0893 -4.3929  1.2484
  759EMI    C1'14411   1.439   0.092   0.716 -0.1567  0.9792  0.1156
  759EMI    H1'14412   1.353   0.143   0.757 -0.3915  0.8389 -1.0920
  759EMI    H1'14413   1.471   0.136   0.623 -1.7919  1.4931  1.0123
  759EMI    H1'14414   1.419  -0.016   0.705 -3.8166  0.3598  1.6948
  759EMI    C1"14415   1.871   0.228   0.944  0.5620 -0.3151  0.7413
  759EMI    H1"14416   1.941   0.159   0.893 -0.6541 -0.9883 -0.0806
  759EMI    H1"14417   1.892   0.224   1.049 -1.1442 -3.4337 -1.3473
  759EMI    C2"14418   1.897   0.371   0.890  0.1261 -0.4355 -0.2936
  759EMI    H2"14419   1.819   0.442   0.921 -0.9988  1.4099 -0.1661
  759EMI    H2"14420   1.997   0.395   0.927  0.9690 -1.6530 -0.5206
  759EMI    H2"14421   1.899   0.365   0.778  2.4484  1.2506 -1.8663
  760EMI     N114422   0.017   5.318   4.302  0.0736  0.5124 -0.8819
  760EMI     C214423  -0.102   5.302   4.362 -0.3365  0.9903  0.2375
  760EMI     N314424  -0.189   5.400   4.332 -0.0737 -0.5702  0.8342
  760EMI     C414425  -0.118   5.488   4.251  0.2761 -0.0944 -0.1539
  760EMI     C514426   0.005   5.440   4.235 -0.0483  0.2853  0.4003
  760EMI     H214427  -0.119   5.221   4.431  0.0432 -0.0448 -2.9144
  760EMI     H414428  -0.151   5.584   4.218  0.0138  0.5658  0.0480
  760EMI     H514429   0.077   5.502   4.186  0.6997 -2.4091 -0.9052
  760EMI    C1'14430  -0.334   5.414   4.352  0.7095 -0.2895  0.2493
  760EMI    H1'14431  -0.396   5.400   4.259  1.6321  0.6827  0.8429
  760EMI    H1'14432  -0.364   5.348   4.436  0.9624 -0.0485  0.7520
  760EMI    H1'14433  -0.359   5.514   4.385 -0.7558  0.6209  1.8552
  760EMI    C1"14434   0.145   5.250   4.322  0.3062 -0.5793 -0.2720
  760EMI    H1"14435   0.190   5.268   4.223 -1.3677 -2.7911  1.8094
  760EMI    H1"14436   0.132   5.150   4.339  1.8032  0.9238 -0.7881
  760EMI    C2"14437   0.215   5.325   4.431 -0.3707 -0.5079 -0.8851
  760EMI    H2"14438   0.147   5.340   4.508 -0.8454 -2.3436 -0.2348
  760EMI    H2"14439   0.298   5.260   4.465  0.9253  1.7251 -0.6962
  760EMI    H2"14440   0.249   5.423   4.396 -0.0440  1.1421  3.1943
  761EMI     N114441   5.943   2.055   5.281  0.5647 -0.3820  0.0884
  761EMI     C214442   6.064   1.996   5.262  0.4990  0.5279  0.4537
  761EMI     N314443   6.115   1.951   5.377 -0.2859  0.2307 -0.7480
  761EMI     C414444   6.009   1.963   5.462 -0.1678 -0.0185 -0.0844
  761EMI     C514445   5.909   2.032   5.407 -0.5600  0.6552 -0.2772
  761EMI     H214446   6.137   1.999   5.185  0.5649 -0.7064  0.4392
  761EMI     H414447   6.012   1.926   5.562  0.8176  2.6978 -0.1504
  761EMI     H514448   5.810   2.059   5.457 -0.7326 -0.3279  1.7626
  761EMI    C1'14449   6.239   1.886   5.406  0.6275 -0.5142 -0.7860
  761EMI    H1'14450   6.232   1.794   5.470 -0.2875 -0.6665 -0.0156
  761EMI    H1'14451   6.288   1.841   5.316  1.1704  0.2076  0.6961
  761EMI    H1'14452   6.302   1.960   5.461  1.0544 -0.7777 -0.0584
  761EMI    C1"14453   5.852   2.139   5.187 -0.4679  0.5037 -0.2812
  761EMI    H1"14454   5.760   2.172   5.245 -0.1256 -0.2541  1.9349
  761EMI    H1"14455   5.826   2.079   5.096 -1.1612 -1.3629  2.1491
  761EMI    C2"14456   5.931   2.260   5.147 -0.0942  0.5872 -0.5437
  761EMI    H2"14457   5.971   2.321   5.222 -3.7975 -0.7113  0.4201
  761EMI    H2"14458   6.013   2.246   5.085  1.5675  2.2391  1.6444
  761EMI    H2"14459   5.856   2.326   5.099  1.3536 -1.7155 -1.5311
  762EMI     N114460   1.364   0.428   2.326 -0.2086  0.3693 -0.1618
  762EMI     C214461   1.354   0.368   2.448 -0.8927 -0.5177 -0.0641
  762EMI     N314462   1.273   0.438   2.532  0.4909 -0.1106 -0.4801
  762EMI     C414463   1.228   0.546   2.460 -0.0974 -0.6814 -0.2218
  762EMI     C514464   1.269   0.527   2.333 -0.6392 -0.7158 -0.0110
  762EMI     H214465   1.370   0.255   2.474 -1.5613 -1.5116 -0.3884
  762EMI     H414466   1.147   0.610   2.492  1.5475  3.6847  0.2841
  762EMI     H514467   1.247   0.587   2.249 -1.1264 -1.8043  0.1933
  762EMI    C1'14468   1.219   0.413   2.671 -0.6739  0.1097  0.8012
  762EMI    H1'14469   1.148   0.332   2.669  2.7814 -2.1987 -0.2154
  762EMI    H1'14470   1.302   0.397   2.738  2.3421 -2.7816 -1.1949
  762EMI    H1'14471   1.161   0.500   2.692  1.6673  1.0392  2.2088
  762EMI    C1"14472   1.423   0.364   2.202 -0.0331  1.0643  0.3298
  762EMI    H1"14473   1.363   0.399   2.122 -1.0100 -2.5288  1.1879
  762EMI    H1"14474   1.402   0.257   2.203 -1.9476 -0.5745  1.7568
  762EMI    C2"14475   1.570   0.396   2.178 -0.0878  0.1255 -0.6463
  762EMI    H2"14476   1.632   0.366   2.266  0.4501 -2.7662  0.1014
  762EMI    H2"14477   1.607   0.334   2.100  2.2632  1.1156  2.0806
  762EMI    H2"14478   1.582   0.500   2.152 -0.8333 -0.9012 -1.3540
  763EMI     N114479   3.293   4.892   0.152 -0.3055  0.0935 -1.2250
  763EMI     C214480   3.300   4.998   0.072  0.1203 -0.1819 -1.0233
  763EMI     N314481   3.298   5.111   0.149 -0.5694 -0.4949  0.6417
  763EMI     C414482   3.288   5.074   0.283  0.1301  0.7066  0.1260
  763EMI     C514483   3.278   4.940   0.282  0.4727  0.0524  0.1655
  763EMI     H214484   3.313   4.989  -0.036  0.0635 -0.7660  1.1343
  763EMI     H414485   3.285   5.146   0.362 -0.0978 -1.4412 -1.4538
  763EMI     H514486   3.265   4.889   0.375  0.2529  1.7044  1.4949
  763EMI    C1'14487   3.272   5.248   0.112  0.0096  0.0968  0.2358
  763EMI    H1'14488   3.226   5.250   0.013  2.1419  1.6817  1.8810
  763EMI    H1'14489   3.193   5.282   0.183  1.5129  0.9715  0.5146
  763EMI    H1'14490   3.371   5.302   0.119 -1.8975 -0.0996 -1.8519
  763EMI    C1"14491   3.285   4.750   0.113  0.1610  0.1960 -0.2361
  763EMI    H1"14492   3.349   4.693   0.183 -1.1658  0.5504 -3.5336
  763EMI    H1"14493   3.321   4.756   0.011  1.7048 -2.1268 -0.4176
  763EMI    C2"14494   3.132   4.717   0.119 -0.0732  0.8348 -0.5560
  763EMI    H2"14495   3.074   4.771   0.046 -2.0876 -3.4825 -0.6757
  763EMI    H2"14496   3.121   4.607   0.099  0.9783 -2.0102 -0.8378
  763EMI    H2"14497   3.089   4.734   0.215  1.5780 -1.2762  0.9774
  764EMI     N114498   2.138   3.193   2.519 -0.5442  0.6564 -0.0661
  764EMI     C214499   2.054   3.113   2.449  0.5403 -0.0143  0.4349
  764EMI     N314500   2.118   3.061   2.340  0.0501  0.3349  0.1677
  764EMI     C414501   2.246   3.112   2.341 -0.1910 -0.6732  0.3857
  764EMI     C514502   2.261   3.189   2.446  0.0080  0.3026  0.1026
  764EMI     H214503   1.947   3.107   2.463 -0.8704 -2.1789 -2.6504
  764EMI     H414504   2.329   3.090   2.275  1.8248  1.5901  2.3899
  764EMI     H514505   2.353   3.238   2.477 -0.3914  0.4842  1.5142
  764EMI    C1'14506   2.079   2.985   2.217 -0.2234  0.3937 -1.0689
  764EMI    H1'14507   2.152   2.976   2.137 -0.1688  2.7436 -1.0354
  764EMI    H1'14508   2.057   2.886   2.245 -0.5035 -1.9151 -1.4538
  764EMI    H1'14509   1.984   3.026   2.187  1.4463 -1.7047  0.1928
  764EMI    C1"14510   2.110   3.300   2.620  0.0178 -1.0198  0.3311
  764EMI    H1"14511   2.190   3.372   2.629 -1.2483  1.0835  1.0676
  764EMI    H1"14512   2.087   3.250   2.713 -1.6178 -0.4712 -1.7330
  764EMI    C2"14513   1.983   3.383   2.579  0.0606  0.5620 -0.1561
  764EMI    H2"14514   1.987   3.395   2.471  1.1233  2.3404  1.6268
  764EMI    H2"14515   1.889   3.341   2.619 -0.2402 -2.8749 -0.0761
  764EMI    H2"14516   1.987   3.483   2.613  1.3704 -2.9413  1.2142
  765EMI     N114517   4.718   2.370   6.182  0.4273 -0.3762  0.2451
  765EMI     C214518   4.705   2.307   6.298 -0.3968 -0.0980 -0.3575
  765EMI     N314519   4.803   2.210   6.301  0.4159 -0.0098 -0.0589
  765EMI     C414520   4.863   2.208   6.175 -0.0025  0.0720  0.0512
  765EMI     C514521   4.809   2.308   6.103  0.0044 -0.2398 -0.4653
  765EMI     H214522   4.645   2.335   6.388  0.2686 -0.9827  0.9424
  765EMI     H414523   4.944   2.148   6.139 -1.4893  0.3344 -1.5958
  765EMI     H514524   4.839   2.340   6.003  0.6650 -0.4871  1.7139
  765EMI    C1'14525   4.833   2.112   6.406  0.0990  0.2470  0.5437
  765EMI    H1'14526   4.770   2.021   6.398 -0.9431  1.0894  0.9360
  765EMI    H1'14527   4.937   2.104   6.425 -0.1827  1.8677 -0.3987
  765EMI    H1'14528   4.806   2.175   6.489  0.8441  1.6302 -2.6380
  765EMI    C1"14529   4.642   2.491   6.139 -0.3486 -0.4596  0.3271
  765EMI    H1"14530   4.619   2.477   6.034 -0.4028  0.4859  0.2983
  765EMI    H1"14531   4.705   2.586   6.150 -0.5085  1.9808  0.8819
  765EMI    C2"14532   4.518   2.522   6.219 -0.4830 -0.0279  0.1181
  765EMI    H2"14533   4.484   2.431   6.258  3.1480  0.4625  2.0283
  765EMI    H2"14534   4.542   2.599   6.300 -1.1521 -2.5670 -0.8302
  765EMI    H2"14535   4.446   2.571   6.151  0.7873 -0.2867 -1.3339
  766EMI     N114536   5.703   5.853   5.513 -0.4649  0.4251 -0.1601
  766EMI     C214537   5.660   5.740   5.574  0.0465  0.0678  0.3242
  766EMI     N314538   5.563   5.782   5.662  0.0538  0.2966 -0.4374
  766EMI     C414539   5.541   5.917   5.642  1.3847 -0.8164 -0.6859
  766EMI     C514540   5.625   5.959   5.550 -0.4355  0.2370 -0.2633
  766EMI     H214541   5.698   5.647   5.558  2.5266 -0.7562 -0.2512
  766EMI     H414542   5.448   5.971   5.680  2.2462  1.7214 -1.1225
  766EMI     H514543   5.622   6.056   5.501  0.2482  1.5022  0.3082
  766EMI    C1'14544   5.477   5.701   5.748  0.0288  0.7453  0.8853
  766EMI    H1'14545   5.495   5.719   5.851  1.0661  1.1456 -0.9840
  766EMI    H1'14546   5.373   5.719   5.721 -0.6486 -0.0043 -1.1409
  766EMI    H1'14547   5.501   5.596   5.720  0.9454 -0.1218 -2.0705
  766EMI    C1"14548   5.809   5.870   5.398  0.2607  0.1704  0.0097
  766EMI    H1"14549   5.782   5.955   5.326 -1.4386  0.7772 -1.8794
  766EMI    H1"14550   5.812   5.783   5.335 -1.7032 -1.1790 -2.8150
  766EMI    C2"14551   5.956   5.899   5.442  0.2415 -0.0114 -0.3796
  766EMI    H2"14552   5.950   5.985   5.509  2.4537  1.0500  0.2820
  766EMI    H2"14553   5.993   5.817   5.502 -1.5177  0.9948 -1.0581
  766EMI    H2"14554   6.014   5.922   5.351  1.6586  1.1841  0.8549
  767EMI     N114555   4.054   2.921   3.547  0.5126  0.3531 -0.6640
  767EMI     C214556   4.077   2.849   3.435  0.6474  0.3087  0.0180
  767EMI     N314557   4.111   2.929   3.336  0.1185  0.3212  0.3355
  767EMI     C414558   4.131   3.061   3.388  0.2461  0.7403 -0.2472
  767EMI     C514559   4.092   3.051   3.519 -0.0162  0.1947 -0.2132
  767EMI     H214560   4.082   2.740   3.433  2.6046  0.4692 -1.1247
  767EMI     H414561   4.167   3.151   3.332  0.5723 -0.8862 -2.6395
  767EMI     H514562   4.087   3.134   3.586 -0.6382  1.5416  0.7227
  767EMI    C1'14563   4.139   2.910   3.192  0.0514  0.2093  0.2777
  767EMI    H1'14564   4.249   2.918   3.170 -1.7673 -3.5960 -2.1971
  767EMI    H1'14565   4.093   2.816   3.156 -0.3333 -2.3968 -0.5060
  767EMI    H1'14566   4.092   2.987   3.129  0.5922  1.0461  1.3957
  767EMI    C1"14567   4.003   2.883   3.682  0.6973  0.8767 -0.2951
  767EMI    H1"14568   3.898   2.848   3.669 -2.6393 -1.0003  0.2152
  767EMI    H1"14569   3.993   2.964   3.750 -0.6780  0.3634 -3.0798
  767EMI    C2"14570   4.096   2.766   3.733  0.1970 -0.9097  0.0509
  767EMI    H2"14571   4.070   2.738   3.833  0.9240  2.1978 -0.4498
  767EMI    H2"14572   4.095   2.682   3.665 -0.9926  0.5086  0.8305
  767EMI    H2"14573   4.199   2.806   3.725 -0.7534 -0.7819 -0.0072
  768EMI     N114574   6.130   3.257   5.918 -0.1600 -0.4688 -0.1067
  768EMI     C214575   6.252   3.225   5.874 -0.3191  0.6803 -0.5282
  768EMI     N314576   6.340   3.218   5.975 -0.2929 -0.1596 -0.7282
  768EMI     C414577   6.272   3.252   6.090  0.4896  0.1327  0.0476
  768EMI     C514578   6.146   3.283   6.051 -0.5222  0.0451 -1.0036
  768EMI     H214579   6.297   3.214   5.777 -0.1910  2.6057  1.6806
  768EMI     H414580   6.296   3.263   6.193 -0.9209 -0.5988 -0.6825
  768EMI     H514581   6.068   3.321   6.115  0.1726 -0.7160  0.2861
  768EMI    C1'14582   6.484   3.208   5.967 -0.1995  0.0422 -0.0037
  768EMI    H1'14583   6.503   3.146   5.875  1.6177 -1.3002  0.3479
  768EMI    H1'14584   6.526   3.308   5.954 -0.2321  2.1581 -2.2095
  768EMI    H1'14585   6.516   3.155   6.054  1.6330 -0.7465  0.3856
  768EMI    C1"14586   6.007   3.290   5.849 -0.2334 -0.4020  0.5164
  768EMI    H1"14587   6.023   3.312   5.747 -3.6126 -0.0300 -1.3412
  768EMI    H1"14588   5.968   3.382   5.887 -1.2167  0.1262  0.8005
  768EMI    C2"14589   5.905   3.179   5.860 -0.0531  0.6594  0.5077
  768EMI    H2"14590   5.949   3.082   5.860  0.2994  1.4738  1.0506
  768EMI    H2"14591   5.859   3.203   5.958  1.4834  0.4327  0.1914
  768EMI    H2"14592   5.824   3.195   5.789 -0.3226  0.0394  1.5454
  769EMI     N114593   1.637   4.322   2.216 -0.1544  0.5655  0.6697
  769EMI     C214594   1.529   4.384   2.269  0.3927 -0.0293  0.0188
  769EMI     N314595   1.453   4.436   2.175  0.8854  0.1275  0.6016
  769EMI     C414596   1.519   4.418   2.055  0.1467  0.8252 -0.8704
  769EMI     C514597   1.628   4.343   2.077  0.7295  0.3194  0.7377
  769EMI     H214598   1.500   4.374   2.372 -0.7350  2.0930 -0.4087
  769EMI     H414599   1.489   4.454   1.963  0.4164 -3.8637  0.7434
  769EMI     H514600   1.705   4.313   2.003 -1.8573 -1.1945  0.7327
  769EMI    C1'14601   1.326   4.505   2.192 -0.8939 -0.3977 -0.4485
  769EMI    H1'14602   1.297   4.546   2.094  0.9500  2.2060  0.4078
  769EMI    H1'14603   1.251   4.448   2.239  0.9010  1.9812 -0.6888
  769EMI    H1'14604   1.347   4.590   2.258 -0.8320  1.6942  1.0446
  769EMI    C1"14605   1.750   4.243   2.274 -0.1147 -0.5582  0.5088
  769EMI    H1"14606   1.830   4.319   2.299  2.0306  0.2613  0.3954
  769EMI    H1"14607   1.789   4.172   2.207  3.6490  0.6154 -0.0310
  769EMI    C2"14608   1.697   4.152   2.389  0.5390 -0.1306  0.1852
  769EMI    H2"14609   1.775   4.104   2.445 -2.0880 -0.5475  1.6818
  769EMI    H2"14610   1.647   4.219   2.457  1.0444  1.0372 -2.8731
  769EMI    H2"14611   1.632   4.083   2.344  0.7223 -0.3817 -1.6424
  770EMI     N114612   4.598   1.570   4.159 -0.4747  0.1903  0.0952
  770EMI     C214613   4.639   1.530   4.038  0.1779  0.3246 -0.0961
  770EMI     N314614   4.766   1.576   4.009  0.7210 -0.4477  0.5717
  770EMI     C414615   4.800   1.645   4.123  0.3796  0.3884  0.0721
  770EMI     C514616   4.705   1.642   4.216 -0.0847  0.3985  0.0169
  770EMI     H214617   4.572   1.472   3.969 -1.4128 -0.8849  0.0457
  770EMI     H414618   4.895   1.685   4.142 -0.4205 -0.0501 -0.4140
  770EMI     H514619   4.702   1.681   4.318 -0.6548 -5.0105  0.7175
  770EMI    C1'14620   4.839   1.569   3.883  0.1206 -0.0270 -1.0336
  770EMI    H1'14621   4.837   1.465   3.852  2.1739 -0.1271  0.6573
  770EMI    H1'14622   4.790   1.624   3.809 -1.8836  1.3839  1.8904
  770EMI    H1'14623   4.938   1.609   3.901 -0.6141  0.3829  1.6872
  770EMI    C1"14624   4.469   1.538   4.223  0.6411  0.2871  0.4072
  770EMI    H1"14625   4.482   1.447   4.293 -1.1222  1.3727  0.9955
  770EMI    H1"14626   4.397   1.519   4.142  0.4537  0.8463  0.0838
  770EMI    C2"14627   4.400   1.650   4.298  0.2728 -0.2982 -0.3844
  770EMI    H2"14628   4.289   1.633   4.294 -1.0398 -2.6984  1.0711
  770EMI    H2"14629   4.431   1.643   4.402  2.1383  0.4867  0.9501
  770EMI    H2"14630   4.426   1.747   4.246  0.3916 -0.9689  2.6769
  771EMI     N114631   3.073   3.138   0.471 -0.2026 -0.0474 -0.1200
  771EMI     C214632   3.026   3.041   0.390  0.2940 -0.3287 -0.0207
  771EMI     N314633   3.067   2.925   0.434  0.6575  0.5451  0.1074
  771EMI     C414634   3.159   2.952   0.534  0.4843 -0.1280  0.2429
  771EMI     C514635   3.166   3.083   0.552 -0.0836  0.6590 -0.9200
  771EMI     H214636   2.952   3.061   0.317  1.2966  0.9435  1.1366
  771EMI     H414637   3.222   2.875   0.588  3.8690  3.1283 -0.2530
  771EMI     H514638   3.226   3.132   0.624 -0.2373 -1.9307 -2.6515
  771EMI    C1'14639   3.040   2.792   0.379 -0.1774  0.8613  0.0013
  771EMI    H1'14640   3.125   2.759   0.321 -1.4799 -1.1173  0.7951
  771EMI    H1'14641   3.014   2.715   0.458  0.8973 -0.4867  2.5406
  771EMI    H1'14642   2.955   2.798   0.310 -0.6214 -0.4271  1.0051
  771EMI    C1"14643   3.036   3.281   0.488 -0.2773 -0.3498  0.0542
  771EMI    H1"14644   2.998   3.303   0.585 -4.5468 -1.0279  0.0962
  771EMI    H1"14645   2.943   3.299   0.434 -0.4529  1.2899 -0.9414
  771EMI    C2"14646   3.137   3.384   0.430 -0.2641  0.0280 -0.0932
  771EMI    H2"14647   3.231   3.362   0.487 -0.7155  1.3271  0.2847
  771EMI    H2"14648   3.152   3.378   0.321 -0.2042 -1.6777  1.4874
  771EMI    H2"14649   3.114   3.484   0.458  1.3298 -1.6472  0.0567
  772EMI     N114650   5.946   3.542   2.773 -0.0854  0.0870 -0.6850
  772EMI     C214651   5.887   3.514   2.890  0.5701  0.5443 -0.1222
  772EMI     N314652   5.766   3.461   2.867  0.3086  0.0011 -0.3900
  772EMI     C414653   5.747   3.466   2.735  0.0576  0.4299 -0.4103
  772EMI     C514654   5.855   3.513   2.670  0.1656 -0.8758  0.1155
  772EMI     H214655   5.944   3.520   2.989 -1.7834 -2.0610  3.3891
  772EMI     H414656   5.649   3.439   2.690 -0.2355  0.8740 -0.4966
  772EMI     H514657   5.854   3.526   2.560 -1.2584  0.9952  1.6189
  772EMI    C1'14658   5.661   3.417   2.957 -0.3007 -0.2054 -0.3810
  772EMI    H1'14659   5.639   3.488   3.036  1.0748 -0.0659  2.3841
  772EMI    H1'14660   5.560   3.416   2.910  1.2998  1.4432  0.6635
  772EMI    H1'14661   5.666   3.313   2.996  0.2932 -0.5599  0.2288
  772EMI    C1"14662   6.067   3.620   2.750 -0.3287 -0.1279  0.1176
  772EMI    H1"14663   6.132   3.578   2.670 -1.4360  3.2758  0.4027
  772EMI    H1"14664   6.110   3.614   2.849 -0.3615 -2.2734  0.9770
  772EMI    C2"14665   6.057   3.760   2.713  0.1098 -0.1051 -0.0454
  772EMI    H2"14666   5.990   3.778   2.623 -1.6339  0.7329 -0.4434
  772EMI    H2"14667   6.015   3.813   2.800  2.4961  0.6108 -0.1323
  772EMI    H2"14668   6.149   3.814   2.683  2.4897  2.9188 -3.3082
  773EMI     N114669   1.606   5.599   2.017  0.5617 -0.3255  0.1268
  773EMI     C214670   1.739   5.613   2.018  0.0984  0.4616 -0.5183
  773EMI     N314671   1.786   5.623   2.142 -0.1870  0.3161  0.0499
  773EMI     C414672   1.675   5.638   2.225 -0.4842  1.2304  0.6939
  773EMI     C514673   1.564   5.620   2.152 -0.3985  0.0328 -0.0859
  773EMI     H214674   1.801   5.609   1.937 -0.0678  0.2880 -0.8301
  773EMI     H414675   1.680   5.662   2.332  1.3934 -0.9866 -3.3593
  773EMI     H514676   1.462   5.622   2.189 -0.7158 -0.0797  1.6142
  773EMI    C1'14677   1.925   5.625   2.189  0.7685 -0.2664 -0.5336
  773EMI    H1'14678   1.978   5.532   2.156  0.7538 -0.4823  2.0486
  773EMI    H1'14679   1.980   5.719   2.156 -0.0430  1.4754  0.1211
  773EMI    H1'14680   1.922   5.627   2.299  0.3373 -0.7223 -0.9428
  773EMI    C1"14681   1.510   5.565   1.909 -0.2623  0.5693  0.8648
  773EMI    H1"14682   1.425   5.502   1.947  0.0088  1.1523 -2.4365
  773EMI    H1"14683   1.556   5.508   1.828 -0.0171 -0.3215 -0.4479
  773EMI    C2"14684   1.454   5.697   1.846 -0.0424 -0.4958  0.4099
  773EMI    H2"14685   1.388   5.671   1.761  0.7770  0.8260 -1.1903
  773EMI    H2"14686   1.386   5.752   1.909  2.9768  1.0557  2.8576
  773EMI    H2"14687   1.532   5.765   1.813  0.7070 -0.7988 -0.1301
  774EMI     N114688   2.952   2.397   0.267 -0.1708 -0.1659 -0.0874
  774EMI     C214689   3.081   2.427   0.304  0.1866  0.2556  0.2209
  774EMI     N314690   3.143   2.313   0.327  0.5322  0.4156  0.1340
  774EMI     C414691   3.053   2.210   0.308 -0.1093 -0.3562 -0.4700
  774EMI     C514692   2.932   2.261   0.274 -0.2241 -0.5398  0.1646
  774EMI     H214693   3.121   2.525   0.315  0.0112 -1.1584 -1.9531
  774EMI     H414694   3.074   2.107   0.316 -0.6956 -0.9459  2.4304
  774EMI     H514695   2.848   2.202   0.255  2.4138  0.5779 -1.9858
  774EMI    C1'14696   3.290   2.289   0.340  0.0001  0.2784 -0.5646
  774EMI    H1'14697   3.326   2.216   0.267 -0.1768  1.3344  0.2210
  774EMI    H1'14698   3.343   2.389   0.318  0.8016  1.8763  0.8169
  774EMI    H1'14699   3.317   2.272   0.440  0.8348  0.9933  1.7865
  774EMI    C1"14700   2.842   2.486   0.221  0.2002 -0.0196  0.7709
  774EMI    H1"14701   2.869   2.530   0.126 -0.2620  0.6064 -0.5483
  774EMI    H1"14702   2.826   2.560   0.294  0.4345 -1.1003 -0.9100
  774EMI    C2"14703   2.701   2.423   0.202  0.3747  0.0537 -0.0566
  774EMI    H2"14704   2.696   2.336   0.136  0.7146  0.4219 -0.8533
  774EMI    H2"14705   2.676   2.380   0.305  1.7465  1.9276 -0.5574
  774EMI    H2"14706   2.630   2.506   0.181  1.1430  0.2341 -0.5097
  775EMI     N114707   3.767   4.014   4.899  0.4306  0.7418 -0.2031
  775EMI     C214708   3.708   3.912   4.836 -0.2831  0.7762 -0.2584
  775EMI     N314709   3.774   3.870   4.727  0.2311 -0.4735 -0.0581
  775EMI     C414710   3.878   3.964   4.717  0.0091  0.6520 -0.6626
  775EMI     C514711   3.883   4.042   4.829  0.4666 -0.2411 -0.6404
  775EMI     H214712   3.625   3.854   4.875 -0.2439 -0.7962  1.0252
  775EMI     H414713   3.953   3.958   4.638 -1.0176 -1.1978 -1.6194
  775EMI     H514714   3.962   4.110   4.859 -3.8970  0.3848 -1.6013
  775EMI    C1'14715   3.748   3.764   4.626  0.1815 -0.8399 -0.1996
  775EMI    H1'14716   3.658   3.785   4.571 -0.6972  0.7631  1.9373
  775EMI    H1'14717   3.836   3.748   4.566 -0.6344 -2.5576  0.2240
  775EMI    H1'14718   3.731   3.676   4.684  2.5752  0.8116  0.0234
  775EMI    C1"14719   3.732   4.091   5.022  0.3788 -0.8701  0.0061
  775EMI    H1"14720   3.819   4.109   5.087  2.8393  2.0235  1.1145
  775EMI    H1"14721   3.648   4.052   5.080  2.1919 -1.5594 -0.9296
  775EMI    C2"14722   3.687   4.233   4.972  0.1094 -0.3158  0.4197
  775EMI    H2"14723   3.595   4.219   4.908  0.0540  0.0099  0.0031
  775EMI    H2"14724   3.678   4.314   5.048  1.3442  0.9189 -0.3903
  775EMI    H2"14725   3.775   4.273   4.921  0.2773  0.8231 -0.3422
  776EMI     N114726   3.518   3.761   1.662  0.0820 -0.1106  0.1889
  776EMI     C214727   3.509   3.894   1.644 -0.1793  0.7677  0.0551
  776EMI     N314728   3.459   3.956   1.750 -0.5382  0.0019  0.0640
  776EMI     C414729   3.428   3.858   1.840 -0.3517  0.4595 -0.4932
  776EMI     C514730   3.463   3.744   1.789  0.2916 -0.1869  0.0311
  776EMI     H214731   3.543   3.946   1.561  2.2637 -1.8910  2.0817
  776EMI     H414732   3.387   3.879   1.944 -0.3416  1.9200  0.4321
  776EMI     H514733   3.452   3.645   1.835 -2.0328  0.2331 -0.2173
  776EMI    C1'14734   3.438   4.099   1.773  0.0529  0.1558  0.5563
  776EMI    H1'14735   3.408   4.149   1.684 -0.6765  0.2635 -0.7777
  776EMI    H1'14736   3.376   4.117   1.856  3.5988 -2.4919  4.1063
  776EMI    H1'14737   3.536   4.143   1.788  0.6883  1.3715 -0.2623
  776EMI    C1"14738   3.574   3.656   1.567 -0.0121  0.6589  0.0252
  776EMI    H1"14739   3.623   3.578   1.620  0.3701  0.1288  1.0411
  776EMI    H1"14740   3.634   3.706   1.491 -1.5126  2.9600 -0.9431
  776EMI    C2"14741   3.454   3.590   1.495 -0.5304 -0.0960 -0.2988
  776EMI    H2"14742   3.398   3.513   1.556 -1.5457 -2.0159  0.8988
  776EMI    H2"14743   3.396   3.673   1.451  1.6654 -2.7174 -1.8685
  776EMI    H2"14744   3.502   3.534   1.410  0.1883 -1.1801 -0.3315
  777EMI     N114745   4.833   4.756   3.792  0.2291  0.1743  0.5091
  777EMI     C214746   4.959   4.759   3.742 -0.2541 -0.2016 -0.0503
  777EMI     N314747   4.954   4.719   3.619  0.2337 -0.3838  0.2421
  777EMI     C414748   4.826   4.685   3.588  0.6118  0.0473 -0.5765
  777EMI     C514749   4.750   4.706   3.699  0.1251 -0.8554  0.2435
  777EMI     H214750   5.033   4.804   3.799  0.8923  0.7075  1.8658
  777EMI     H414751   4.794   4.652   3.490  4.6673 -1.8653  1.8944
  777EMI     H514752   4.646   4.686   3.707 -2.2757  2.3346  1.3269
  777EMI    C1'14753   5.065   4.723   3.529  0.6748  0.4539  0.6689
  777EMI    H1'14754   5.029   4.765   3.433 -0.0685 -1.0514 -3.6469
  777EMI    H1'14755   5.137   4.780   3.580 -0.9519  0.5812 -2.8146
  777EMI    H1'14756   5.093   4.618   3.515 -0.2043 -0.8709 -0.5013
  777EMI    C1"14757   4.784   4.776   3.934  0.2349  0.1833 -1.2059
  777EMI    H1"14758   4.869   4.770   4.000  2.5404 -2.7531 -2.8176
  777EMI    H1"14759   4.708   4.706   3.947 -2.3195  2.6669 -0.8961
  777EMI    C2"14760   4.720   4.916   3.946 -0.2640  0.0626  0.2696
  777EMI    H2"14761   4.635   4.926   3.872  0.2161 -0.4715 -0.5017
  777EMI    H2"14762   4.680   4.929   4.043 -2.2049  0.5628 -0.7926
  777EMI    H2"14763   4.790   4.997   3.918 -1.5745 -1.3051 -0.1791
  778EMI     N114764   5.116   0.888   5.376 -0.4440  0.5694 -0.0305
  778EMI     C214765   5.064   0.974   5.284 -0.3009  0.3802 -0.5168
  778EMI     N314766   4.960   0.913   5.223  0.3894 -0.0273 -0.2585
  778EMI     C414767   4.938   0.788   5.289  0.2620 -0.3091  0.0786
  778EMI     C514768   5.032   0.774   5.385 -0.1540 -0.4625 -0.1633
  778EMI     H214769   5.108   1.069   5.262  0.7805 -0.5540  0.9178
  778EMI     H414770   4.852   0.729   5.269 -0.4289  1.2337  3.2826
  778EMI     H514771   5.038   0.688   5.449 -1.3828 -1.4458 -3.4455
  778EMI    C1'14772   4.876   0.965   5.119  0.1567 -0.1633  0.1133
  778EMI    H1'14773   4.812   0.885   5.082  0.7058  2.2138 -3.2830
  778EMI    H1'14774   4.823   1.058   5.142 -0.2281 -1.5376 -1.2696
  778EMI    H1'14775   4.940   0.991   5.037  0.3596  0.6131 -0.6952
  778EMI    C1"14776   5.230   0.914   5.468 -0.5480 -0.7239 -0.0085
  778EMI    H1"14777   5.190   0.886   5.568  1.4369  0.7197  0.1045
  778EMI    H1"14778   5.260   1.015   5.453 -1.6649 -2.0352  0.9531
  778EMI    C2"14779   5.336   0.815   5.437 -0.2358  0.1755 -0.6033
  778EMI    H2"14780   5.404   0.811   5.519  1.8153  0.9747  0.0209
  778EMI    H2"14781   5.291   0.719   5.422  1.8856 -1.0681  0.0556
  778EMI    H2"14782   5.384   0.847   5.347 -0.6630 -0.8761 -0.2056
  779EMI     N114783   2.839   6.125   2.850  0.9978  0.1392 -0.2422
  779EMI     C214784   2.930   6.111   2.946  0.1433  0.2057 -0.8627
  779EMI     N314785   2.928   6.222   3.021  0.8386 -0.4245 -0.7100
  779EMI     C414786   2.841   6.308   2.964  0.1751 -1.1200  0.3752
  779EMI     C514787   2.789   6.252   2.854 -1.0107  0.1943  0.6544
  779EMI     H214788   2.983   6.019   2.970 -2.5709 -2.0817  0.7733
  779EMI     H414789   2.827   6.412   2.997  2.3386 -1.9824  0.3411
  779EMI     H514790   2.725   6.305   2.783 -0.0235  0.9709  0.8215
  779EMI    C1'14791   3.011   6.248   3.139  0.1577 -0.3415 -0.3646
  779EMI    H1'14792   3.070   6.338   3.123  1.5402 -0.5021  0.0249
  779EMI    H1'14793   2.945   6.266   3.224  1.8092 -0.1524 -0.4158
  779EMI    H1'14794   3.079   6.162   3.159  1.4975 -2.0684 -1.6430
  779EMI    C1"14795   2.778   6.032   2.756  0.2812 -0.0110  0.1171
  779EMI    H1"14796   2.688   6.076   2.704 -1.8460 -3.0332  2.5861
  779EMI    H1"14797   2.742   5.945   2.805 -0.3657  0.6196  0.3037
  779EMI    C2"14798   2.881   5.970   2.660  0.1364  0.4679 -0.8959
  779EMI    H2"14799   2.919   6.042   2.582  2.5830 -0.9954  2.9224
  779EMI    H2"14800   2.969   5.933   2.705  2.1526  1.8030 -1.8338
  779EMI    H2"14801   2.827   5.888   2.608  1.8504 -0.2755  0.9386
  780EMI     N114802   3.312   1.837   0.270  0.0388  0.2530 -0.0790
  780EMI     C214803   3.406   1.767   0.199  0.8135 -0.9498 -0.0686
  780EMI     N314804   3.525   1.835   0.203  0.1197 -0.2325 -0.5646
  780EMI     C414805   3.505   1.945   0.287 -0.0075 -0.5804 -0.1525
  780EMI     C514806   3.376   1.942   0.333 -0.4007  0.3056 -0.2106
  780EMI     H214807   3.379   1.679   0.140  1.3232  0.6122 -1.5603
  780EMI     H414808   3.585   2.017   0.290  2.2534  2.7968 -0.2127
  780EMI     H514809   3.335   2.018   0.395  1.8243 -0.6184  1.0193
  780EMI    C1'14810   3.652   1.803   0.139 -0.0205 -0.0975 -0.1878
  780EMI    H1'14811   3.716   1.756   0.209  0.3675  0.3900 -0.2003
  780EMI    H1'14812   3.632   1.728   0.061  2.0235 -2.2089  1.4707
  780EMI    H1'14813   3.698   1.895   0.095  0.4615 -0.1773 -1.5899
  780EMI    C1"14814   3.164   1.812   0.291 -0.2360 -0.1431  0.1893
  780EMI    H1"14815   3.123   1.856   0.386  0.4225 -0.3767  1.6793
  780EMI    H1"14816   3.150   1.702   0.298 -1.3246 -1.9887  1.0882
  780EMI    C2"14817   3.085   1.866   0.176  0.3585  0.6452 -0.5851
  780EMI    H2"14818   3.112   1.818   0.079  1.3794  2.2790 -1.4716
  780EMI    H2"14819   2.977   1.852   0.189  1.2083  1.5741 -0.6512
  780EMI    H2"14820   3.095   1.972   0.174 -1.6886 -3.1913 -2.3692
  781EMI     N114821   4.670   0.737   3.039  0.2439 -0.7852 -0.2888
  781EMI     C214822   4.629   0.729   2.913 -0.6603 -0.1771 -0.4570
  781EMI     N314823   4.508   0.658   2.902  0.0980 -0.2672 -0.0244
  781EMI     C414824   4.466   0.643   3.031 -0.0213 -0.4978  0.2256
  781EMI     C514825   4.566   0.693   3.114 -0.6292 -0.1957 -0.3203
  781EMI     H214826   4.693   0.781   2.836 -2.1663  2.3133 -1.3844
  781EMI     H414827   4.373   0.593   3.058  1.3243  0.8450 -1.6221
  781EMI     H514828   4.574   0.681   3.221 -0.0097  0.3821 -3.0275
  781EMI    C1'14829   4.428   0.621   2.781 -0.2095  0.7343 -0.8423
  781EMI    H1'14830   4.344   0.564   2.815  1.2657 -1.2632 -1.0322
  781EMI    H1'14831   4.395   0.712   2.738 -1.2484 -0.0677  1.3849
  781EMI    H1'14832   4.478   0.567   2.705  0.4109  0.1224  4.1621
  781EMI    C1"14833   4.766   0.834   3.091  0.4792 -0.2954  0.6329
  781EMI    H1"14834   4.717   0.906   3.148  0.2773 -0.1852  0.9562
  781EMI    H1"14835   4.817   0.884   3.003 -0.5632  0.1946  1.4752
  781EMI    C2"14836   4.879   0.763   3.161  0.4155  0.2864  0.3542
  781EMI    H2"14837   4.957   0.834   3.193 -0.0762 -0.2454 -0.5771
  781EMI    H2"14838   4.846   0.699   3.245 -0.9297  0.5694  3.1744
  781EMI    H2"14839   4.941   0.702   3.090  1.4015  0.8239 -0.6703
  782EMI     N114840   4.154   6.119   1.804  0.1262  0.2717  0.7986
  782EMI     C214841   4.194   5.991   1.762 -1.0332  0.5321 -0.5700
  782EMI     N314842   4.255   5.931   1.867 -0.0659  0.1935  0.7874
  782EMI     C414843   4.256   6.020   1.972  0.0620  0.0989 -0.5478
  782EMI     C514844   4.189   6.132   1.933 -0.0016 -0.2955 -0.1604
  782EMI     H214845   4.172   5.942   1.671 -0.0972  1.1370 -0.7054
  782EMI     H414846   4.298   5.992   2.066 -0.7342 -0.6954  2.2041
  782EMI     H514847   4.168   6.221   1.990  0.9202 -0.4167  1.3912
  782EMI    C1'14848   4.292   5.787   1.890 -0.0515  0.5272  0.7665
  782EMI    H1'14849   4.281   5.749   1.991  2.8872 -0.5220 -0.3804
  782EMI    H1'14850   4.226   5.724   1.829  0.0032  0.8613 -0.8598
  782EMI    H1'14851   4.398   5.771   1.858 -0.5904 -1.8300  0.3276
  782EMI    C1"14852   4.062   6.213   1.728 -0.3809  0.3192 -0.7917
  782EMI    H1"14853   4.027   6.304   1.785  0.3987  0.9265  0.3751
  782EMI    H1"14854   3.975   6.152   1.698  0.4418  0.5082  1.6735
  782EMI    C2"14855   4.122   6.265   1.596 -0.2241  0.1101  0.7244
  782EMI    H2"14856   4.048   6.328   1.548  0.2052  1.3628  0.2708
  782EMI    H2"14857   4.211   6.316   1.619 -1.4282 -0.5922  0.6934
  782EMI    H2"14858   4.139   6.173   1.541 -0.2532  1.5305 -1.0448
  783EMI     N114859   2.220   2.531   1.767 -0.3942  0.2750  0.8811
  783EMI     C214860   2.144   2.423   1.744 -0.3960  0.2375  0.1848
  783EMI     N314861   2.035   2.433   1.818 -0.2906 -0.1649 -0.3271
  783EMI     C414862   2.041   2.547   1.891 -0.0890  0.4351  0.0484
  783EMI     C514863   2.159   2.608   1.865  0.0079  0.1039 -0.1984
  783EMI     H214864   2.164   2.343   1.680 -2.1587 -0.0637  2.4009
  783EMI     H414865   1.967   2.577   1.964  1.8296  1.6745  2.0952
  783EMI     H514866   2.196   2.697   1.908 -0.4276 -1.3144  0.9534
  783EMI    C1'14867   1.929   2.333   1.832 -0.0553 -0.2808 -0.6266
  783EMI    H1'14868   1.829   2.360   1.782 -1.5214  1.8849 -5.0241
  783EMI    H1'14869   1.960   2.242   1.788  0.5920  1.5209  2.0939
  783EMI    H1'14870   1.896   2.322   1.935  1.2558 -0.2939  0.5651
  783EMI    C1"14871   2.350   2.574   1.702  0.3457  0.3492  0.6421
  783EMI    H1"14872   2.405   2.482   1.681 -0.7023 -1.6396 -2.1979
  783EMI    H1"14873   2.412   2.641   1.765 -1.3839 -0.6091  0.4785
  783EMI    C2"14874   2.337   2.626   1.558 -0.6014  0.2270 -0.2475
  783EMI    H2"14875   2.294   2.724   1.557 -2.2333 -1.8080 -0.7180
  783EMI    H2"14876   2.426   2.629   1.504 -0.5031  1.3773  0.1659
  783EMI    H2"14877   2.271   2.573   1.496 -0.3396  0.6367  0.3659
  784EMI     N114878   5.451   5.231   4.650 -0.1891  0.3218  0.0552
  784EMI     C214879   5.577   5.239   4.681 -0.8398 -0.6842 -0.2747
  784EMI     N314880   5.636   5.109   4.682  0.0038 -0.4372  0.3933
  784EMI     C414881   5.523   5.029   4.679  0.5410  1.0626 -0.4771
  784EMI     C514882   5.412   5.098   4.656 -0.0346 -0.1915 -0.2999
  784EMI     H214883   5.630   5.332   4.706 -0.5707 -0.3463  0.4807
  784EMI     H414884   5.522   4.925   4.714 -1.0852  0.3548 -0.3564
  784EMI     H514885   5.317   5.064   4.643  1.3132 -0.3741 -0.0983
  784EMI    C1'14886   5.776   5.067   4.697  0.3740 -0.0841 -0.4516
  784EMI    H1'14887   5.789   4.966   4.725  0.8618 -2.1813  0.0806
  784EMI    H1'14888   5.818   5.075   4.599 -1.0275 -1.7644 -0.9285
  784EMI    H1'14889   5.827   5.117   4.780 -1.5063 -1.9288 -1.0131
  784EMI    C1"14890   5.364   5.349   4.636 -0.4493  0.1168  0.0618
  784EMI    H1"14891   5.417   5.426   4.570  0.4463 -0.5428 -1.7234
  784EMI    H1"14892   5.349   5.389   4.738  1.3745 -1.6786 -2.4647
  784EMI    C2"14893   5.226   5.315   4.570 -0.1652 -0.0223 -0.4751
  784EMI    H2"14894   5.158   5.240   4.614 -1.0656 -0.8927  0.8453
  784EMI    H2"14895   5.167   5.404   4.570 -1.3020 -0.2044  0.6875
  784EMI    H2"14896   5.245   5.281   4.474  3.3560  1.7651 -0.5744
  785EMI     N114897   5.215   6.007   0.892  0.1034 -0.4581 -0.2779
  785EMI     C214898   5.289   6.115   0.918  0.5365 -0.1059 -1.1661
  785EMI     N314899   5.338   6.110   1.039 -0.1549 -0.2955 -0.2637
  785EMI     C414900   5.305   5.987   1.088  0.5981 -0.0165 -0.3753
  785EMI     C514901   5.226   5.927   0.999  0.4844 -0.3086 -0.5499
  785EMI     H214902   5.304   6.197   0.849  2.1037 -2.8383 -0.9197
  785EMI     H414903   5.343   5.932   1.176 -0.4611 -1.3994 -0.7016
  785EMI     H514904   5.191   5.826   1.011 -2.2113 -0.1589  0.7338
  785EMI    C1'14905   5.441   6.190   1.104  0.5228 -0.8222 -0.4718
  785EMI    H1'14906   5.418   6.297   1.098  2.3813 -0.0920 -1.3786
  785EMI    H1'14907   5.473   6.150   1.198 -1.4924 -1.2604  0.7663
  785EMI    H1'14908   5.521   6.177   1.031 -1.7363 -4.3391 -0.5018
  785EMI    C1"14909   5.143   5.989   0.774  0.2157  0.1011  0.6609
  785EMI    H1"14910   5.154   5.885   0.738 -0.3063 -0.5519 -0.0324
  785EMI    H1"14911   5.190   6.043   0.691 -0.2252 -2.3218 -0.2996
  785EMI    C2"14912   4.990   6.027   0.791  0.4987 -0.8930 -0.5588
  785EMI    H2"14913   4.983   6.121   0.854 -1.2613 -1.2228  0.7613
  785EMI    H2"14914   4.943   6.047   0.689  0.7156  0.1579  0.5683
  785EMI    H2"14915   4.937   5.949   0.841  2.9322  2.9571 -0.9950
  786EMI     N114916   4.289   2.041   5.961  0.3722 -0.1418  0.4565
  786EMI     C214917   4.267   2.132   5.866  0.1752 -0.1184 -0.0218
  786EMI     N314918   4.253   2.071   5.747 -0.0960 -0.3925 -0.0290
  786EMI     C414919   4.257   1.935   5.766 -0.1345  0.1482  0.7792
  786EMI     C514920   4.271   1.918   5.902 -0.3508  0.5309 -0.0936
  786EMI     H214921   4.265   2.237   5.881 -1.9350 -0.6991 -1.7194
  786EMI     H414922   4.250   1.862   5.692  0.2634 -2.2539  1.7844
  786EMI     H514923   4.273   1.826   5.956 -1.0074 -0.6643  2.0119
  786EMI    C1'14924   4.229   2.119   5.609 -0.8218 -0.7292 -0.6433
  786EMI    H1'14925   4.280   2.049   5.539  0.1749 -0.0585  1.1250
  786EMI    H1'14926   4.120   2.101   5.600 -0.7453  1.6687  2.4193
  786EMI    H1'14927   4.257   2.225   5.584  0.1755  0.0657 -0.3123
  786EMI    C1"14928   4.322   2.051   6.103  0.3066  0.6658 -0.0712
  786EMI    H1"14929   4.396   1.970   6.135 -1.5530 -1.0965  1.9637
  786EMI    H1"14930   4.230   2.041   6.159  0.6838  1.2226  4.5535
  786EMI    C2"14931   4.385   2.182   6.139 -0.2677  0.1488 -0.0148
  786EMI    H2"14932   4.377   2.188   6.255 -0.8162  0.4833  2.7343
  786EMI    H2"14933   4.486   2.179   6.094 -2.1750 -3.0246 -0.2334
  786EMI    H2"14934   4.330   2.274   6.108 -1.6220  0.7179  0.0723
  787EMI     N114935   4.298   3.987   4.172  0.1184  0.5842  0.0177
  787EMI     C214936   4.181   4.013   4.215 -0.3476  0.6676  0.2611
  787EMI     N314937   4.118   3.901   4.242  0.9185 -0.4109 -0.5787
  787EMI     C414938   4.206   3.796   4.220  0.4814  0.0281 -0.2242
  787EMI     C514939   4.320   3.852   4.168 -0.2138  1.2012 -0.3071
  787EMI     H214940   4.128   4.105   4.224  0.0212  1.2535 -1.4876
  787EMI     H414941   4.180   3.695   4.232  3.6031  0.1699 -0.4128
  787EMI     H514942   4.407   3.800   4.124 -0.2441 -0.4515 -0.6962
  787EMI    C1'14943   3.982   3.875   4.284  0.2076 -0.3857 -0.6902
  787EMI    H1'14944   3.914   3.887   4.202 -0.6636  1.7488  1.0192
  787EMI    H1'14945   3.964   3.786   4.330 -0.9860  0.9948 -3.8473
  787EMI    H1'14946   3.956   3.956   4.345 -0.4106  0.9484  0.5427
  787EMI    C1"14947   4.400   4.082   4.113  0.7792 -0.4861 -0.6809
  787EMI    H1"14948   4.457   4.035   4.034 -0.0816 -1.4457  2.6272
  787EMI    H1"14949   4.474   4.106   4.191  2.4510  2.3619 -0.2983
  787EMI    C2"14950   4.349   4.216   4.060 -0.7892  0.4235  0.3198
  787EMI    H2"14951   4.438   4.270   4.031 -0.3339 -3.1569  0.3967
  787EMI    H2"14952   4.287   4.220   3.966  2.2731  0.5354 -0.8048
  787EMI    H2"14953   4.283   4.269   4.132 -1.4188 -0.1050 -0.5298
  788EMI     N114954   1.004   1.115   1.549  0.6298 -0.1764 -0.5051
  788EMI     C214955   1.004   0.977   1.551 -0.1534 -0.3471 -1.1879
  788EMI     N314956   0.878   0.936   1.544  0.1270 -0.3385 -0.6177
  788EMI     C414957   0.804   1.054   1.534  0.4311  0.5075 -0.9723
  788EMI     C514958   0.880   1.159   1.526 -0.5195 -0.2319 -0.3933
  788EMI     H214959   1.092   0.910   1.556 -2.1111  0.4215 -0.0002
  788EMI     H414960   0.700   1.058   1.529  1.1954 -0.9660 -0.5353
  788EMI     H514961   0.841   1.261   1.501 -0.6390 -1.8929  0.0756
  788EMI    C1'14962   0.827   0.801   1.563 -0.3405 -0.4717 -0.3656
  788EMI    H1'14963   0.849   0.739   1.478 -0.8892 -1.1480  3.0925
  788EMI    H1'14964   0.874   0.756   1.646 -1.2573 -0.1629  1.2862
  788EMI    H1'14965   0.719   0.798   1.577 -1.0907  1.6445 -2.6936
  788EMI    C1"14966   1.116   1.210   1.566  0.6190  0.1693  0.5424
  788EMI    H1"14967   1.119   1.277   1.480 -0.9616  3.5514  2.0450
  788EMI    H1"14968   1.206   1.153   1.584 -1.5524 -2.1807  0.6536
  788EMI    C2"14969   1.095   1.305   1.675 -0.9044 -0.0915  0.5206
  788EMI    H2"14970   0.993   1.347   1.681  1.0067 -1.0367 -2.1788
  788EMI    H2"14971   1.098   1.253   1.770 -0.2636 -2.9602  1.0848
  788EMI    H2"14972   1.169   1.387   1.669  0.7345  0.0692 -1.6554
  789EMI     N114973   6.123   5.959   1.141  0.6143 -0.7619 -0.9178
  789EMI     C214974   6.190   5.844   1.165  0.2527  0.4359  0.2992
  789EMI     N314975   6.105   5.747   1.188 -0.4212 -0.0849 -0.2079
  789EMI     C414976   5.982   5.798   1.175 -1.1073 -0.4522 -0.3472
  789EMI     C514977   5.988   5.928   1.146  0.0881 -0.4690 -0.7907
  789EMI     H214978   6.298   5.840   1.168 -2.4017  5.4801 -0.9671
  789EMI     H414979   5.886   5.744   1.171 -2.7173 -1.2155 -0.5851
  789EMI     H514980   5.909   5.996   1.122  0.1067 -2.0935  3.2259
  789EMI    C1'14981   6.125   5.599   1.200 -0.3246 -0.3887  0.0250
  789EMI    H1'14982   6.233   5.572   1.174  2.4370 -0.0337  0.6239
  789EMI    H1'14983   6.104   5.561   1.303  0.8972  1.8727 -0.1736
  789EMI    H1'14984   6.056   5.544   1.129 -1.1589 -2.1271  2.6776
  789EMI    C1"14985   6.166   6.096   1.108  0.4837 -0.1494 -0.0206
  789EMI    H1"14986   6.076   6.159   1.097 -2.1347  1.5094  0.6312
  789EMI    H1"14987   6.230   6.099   1.019 -2.5642  0.8001  2.5834
  789EMI    C2"14988   6.242   6.147   1.231 -0.1712 -0.7386 -0.4180
  789EMI    H2"14989   6.312   6.069   1.264 -0.6075  0.3397 -1.2460
  789EMI    H2"14990   6.298   6.233   1.201  0.2117  0.6490  0.2509
  789EMI    H2"14991   6.177   6.177   1.312  2.5030 -1.1412 -2.1294
  790EMI     N114992   3.803   2.595   2.297  0.6642  0.2684  0.0103
  790EMI     C214993   3.866   2.653   2.188  0.3339 -0.6141  0.6562
  790EMI     N314994   3.865   2.569   2.087 -0.5708  0.7024 -0.1886
  790EMI     C414995   3.807   2.456   2.129  0.0580  0.0172  0.6167
  790EMI     C514996   3.765   2.471   2.257  0.3821  0.1274  0.1743
  790EMI     H214997   3.901   2.751   2.196 -0.8143  0.3966  1.7735
  790EMI     H414998   3.789   2.366   2.062  0.8166 -1.3995 -1.6277
  790EMI     H514999   3.714   2.397   2.315  3.1957 -1.4516  0.0165
  790EMI    C1'15000   3.913   2.573   1.950 -0.2190 -0.2614 -0.1186
  790EMI    H1'15001   3.950   2.465   1.929 -0.2344  0.6197 -1.7937
  790EMI    H1'15002   3.832   2.587   1.878  2.6494 -0.1725  0.6759
  790EMI    H1'15003   3.988   2.643   1.938 -1.4959  0.7775 -0.4184
  790EMI    C1"15004   3.761   2.643   2.434  0.5046 -0.1812 -0.4929
  790EMI    H1"15005   3.659   2.616   2.457  2.3139  1.2834 -0.3199
  790EMI    H1"15006   3.764   2.756   2.446  0.2173 -0.8509  1.1273
  790EMI    C2"15007   3.865   2.594   2.540 -0.0189 -0.2380  0.2451
  790EMI    H2"15008   3.830   2.628   2.636  1.7627 -4.2472 -0.0666
  790EMI    H2"15009   3.881   2.486   2.542  1.2459 -0.7133 -0.8116
  790EMI    H2"15010   3.962   2.643   2.518  0.8890  0.4510  0.4650
  791EMI     N115011   4.222   2.956   4.504  0.0711  0.0290 -0.1092
  791EMI     C215012   4.308   2.985   4.607 -0.6672  0.5725  0.0692
  791EMI     N315013   4.360   3.107   4.593  0.8136  0.1724 -0.7038
  791EMI     C415014   4.303   3.158   4.473 -0.2683 -0.4610  0.4000
  791EMI     C515015   4.225   3.066   4.411  0.6152 -0.4954 -0.4209
  791EMI     H215016   4.337   2.919   4.687 -1.4991  0.9140 -2.2064
  791EMI     H415017   4.334   3.254   4.440  1.8610 -2.7294 -2.3116
  791EMI     H515018   4.168   3.087   4.322 -2.2067 -0.6210  2.5828
  791EMI    C1'15019   4.449   3.185   4.676  0.8894 -0.1201  0.3994
  791EMI    H1'15020   4.454   3.157   4.779  0.3266  1.3671 -2.1329
  791EMI    H1'15021   4.551   3.186   4.621  0.2885  0.6904 -1.2201
  791EMI    H1'15022   4.405   3.286   4.669 -0.8668 -0.0183  0.9038
  791EMI    C1"15023   4.139   2.835   4.482  0.3677 -0.0048  0.0906
  791EMI    H1"15024   4.065   2.854   4.405  1.6596 -2.1339 -0.8151
  791EMI    H1"15025   4.087   2.802   4.575 -1.6258 -0.8215 -0.5981
  791EMI    C2"15026   4.216   2.713   4.425  0.2601  0.0989 -0.2459
  791EMI    H2"15027   4.156   2.645   4.360 -1.0152 -1.5153  0.4357
  791EMI    H2"15028   4.296   2.748   4.371  1.9470 -0.3082 -1.8060
  791EMI    H2"15029   4.245   2.655   4.511 -0.3169 -0.2716  0.7158
  792EMI     N115030   6.029   0.035   3.408 -0.0359  0.3590 -0.0438
  792EMI     C215031   5.927   0.012   3.493 -0.0348 -0.6057  0.4037
  792EMI     N315032   5.816  -0.022   3.417 -1.1531 -0.1949 -0.2806
  792EMI     C415033   5.851  -0.014   3.282  0.0357 -0.3173  0.1521
  792EMI     C515034   5.982   0.020   3.279  0.1234 -0.1770  0.0403
  792EMI     H215035   5.938   0.012   3.602 -0.9891 -0.4311 -2.1160
  792EMI     H415036   5.784  -0.026   3.191  2.3061  1.2632  0.9955
  792EMI     H515037   6.040   0.032   3.192 -0.7156  1.3111  1.2949
  792EMI    C1'15038   5.690  -0.086   3.461  0.4872  0.0910 -0.3761
  792EMI    H1'15039   5.613  -0.043   3.400 -0.2020 -1.6733 -0.0417
  792EMI    H1'15040   5.694  -0.191   3.469 -0.5006 -0.4585 -0.7479
  792EMI    H1'15041   5.661  -0.048   3.565  0.1673 -1.2133 -0.7971
  792EMI    C1"15042   6.166   0.086   3.429  1.1554 -0.2055 -0.4469
  792EMI    H1"15043   6.171   0.178   3.380  1.4973  0.2187 -2.6718
  792EMI    H1"15044   6.226   0.014   3.377 -1.7122  1.7912  0.9315
  792EMI    C2"15045   6.192   0.121   3.576 -0.2313 -0.0816 -0.3056
  792EMI    H2"15046   6.125   0.195   3.617  0.0282 -0.2111  0.6230
  792EMI    H2"15047   6.180   0.038   3.643  2.3922  0.3312  0.2416
  792EMI    H2"15048   6.288   0.167   3.567 -1.3712 -1.6050  0.3678
  793EMI     N115049   4.901   3.940   3.315  0.6448  0.5551 -0.0461
  793EMI     C215050   5.013   3.876   3.270 -0.5847 -0.0915  0.3101
  793EMI     N315051   4.982   3.761   3.208 -0.6436  0.4613  0.1732
  793EMI     C415052   4.847   3.756   3.215  0.1964  0.1515 -0.5750
  793EMI     C515053   4.788   3.863   3.280  0.2593 -1.5174  0.3081
  793EMI     H215054   5.114   3.919   3.282  1.8950  1.9123 -0.0012
  793EMI     H415055   4.780   3.675   3.168 -2.2806  0.3937  1.8362
  793EMI     H515056   4.679   3.881   3.302  0.5768  1.6246 -1.5804
  793EMI    C1'15057   5.067   3.660   3.150  0.1113  0.8273 -0.0119
  793EMI    H1'15058   5.154   3.678   3.211 -2.6729 -1.3241 -0.8521
  793EMI    H1'15059   5.035   3.557   3.159 -0.2447 -1.3281  0.2773
  793EMI    H1'15060   5.101   3.693   3.046 -0.7101 -2.0632  0.3569
  793EMI    C1"15061   4.889   4.065   3.407  0.0204 -0.1061 -0.0450
  793EMI    H1"15062   4.779   4.098   3.406  0.3955 -0.6876  0.6042
  793EMI    H1"15063   4.962   4.138   3.379  1.3318 -0.5863  1.9896
  793EMI    C2"15064   4.927   4.018   3.548 -0.0447  0.2970  0.3703
  793EMI    H2"15065   4.862   3.945   3.587  0.3735  0.6714 -1.7246
  793EMI    H2"15066   5.022   3.977   3.546 -0.4139 -1.2547 -0.6900
  793EMI    H2"15067   4.932   4.101   3.617 -2.6641 -2.2129 -0.2880
  794EMI     N115068   2.002   5.200   4.563 -0.4332 -0.0559  0.3275
  794EMI     C215069   1.971   5.146   4.683  0.4336  0.6376  0.3342
  794EMI     N315070   2.078   5.153   4.759  0.6831  0.0185 -0.2324
  794EMI     C415071   2.185   5.193   4.681 -0.3287  0.1276  0.2831
  794EMI     C515072   2.138   5.224   4.560  0.8007  0.3593 -0.0080
  794EMI     H215073   1.873   5.095   4.710 -1.1047 -0.7005  0.9082
  794EMI     H415074   2.287   5.189   4.714 -0.7531  0.7949 -2.5802
  794EMI     H515075   2.192   5.256   4.472 -0.3057  0.0273  0.9037
  794EMI    C1'15076   2.094   5.096   4.898 -0.0118  0.2098 -0.1594
  794EMI    H1'15077   2.161   5.014   4.907 -0.2920 -1.1190  1.5655
  794EMI    H1'15078   2.114   5.171   4.977 -0.7702 -2.7824 -1.5491
  794EMI    H1'15079   1.997   5.054   4.931  1.9133 -0.6646 -1.3447
  794EMI    C1"15080   1.913   5.222   4.439 -0.7140 -0.1198  0.5160
  794EMI    H1"15081   1.967   5.294   4.371  0.5378 -0.0633 -1.4765
  794EMI    H1"15082   1.810   5.247   4.464  2.2730 -0.8135 -1.6974
  794EMI    C2"15083   1.911   5.089   4.354  0.6441 -0.4934 -0.0818
  794EMI    H2"15084   2.009   5.075   4.310 -0.4654  1.6327 -0.0974
  794EMI    H2"15085   1.895   5.003   4.423  1.7423 -1.6654 -0.2458
  794EMI    H2"15086   1.830   5.084   4.274  2.1089 -2.6828 -1.5651
  795EMI     N115087   1.388   0.839   4.884  0.2088 -0.2947  0.4649
  795EMI     C215088   1.273   0.789   4.924  0.1061 -0.7946 -0.4829
  795EMI     N315089   1.185   0.785   4.825  0.4625 -0.6691  0.1455
  795EMI     C415090   1.253   0.818   4.710 -0.7102  0.0475  0.1738
  795EMI     C515091   1.375   0.859   4.748 -0.1775 -0.5668  0.1596
  795EMI     H215092   1.258   0.756   5.026  0.5621 -0.2746 -0.5518
  795EMI     H415093   1.205   0.814   4.614 -0.7610 -0.0375  3.1867
  795EMI     H515094   1.451   0.890   4.678  1.7899  2.2476 -2.5358
  795EMI    C1'15095   1.050   0.725   4.823 -0.7657 -0.3215 -0.5196
  795EMI    H1'15096   1.019   0.702   4.716 -2.2722  0.1005  1.5163
  795EMI    H1'15097   1.060   0.627   4.874 -2.2332  1.7854  0.4694
  795EMI    H1'15098   0.977   0.800   4.868 -2.0227  1.5455  2.5576
  795EMI    C1"15099   1.519   0.839   4.948  0.3804 -0.0387  0.0111
  795EMI    H1"15100   1.601   0.848   4.870  2.0004  2.1649  0.4352
  795EMI    H1"15101   1.532   0.750   5.005  1.8022  0.1607  0.3483
  795EMI    C2"15102   1.519   0.953   5.050  0.2663 -0.1161  0.3301
  795EMI    H2"15103   1.533   1.049   5.004  0.9846 -1.3162  0.9810
  795EMI    H2"15104   1.431   0.942   5.111 -1.2487 -1.4899 -0.2114
  795EMI    H2"15105   1.598   0.931   5.111 -3.1263 -0.7883 -1.1314
  796EMI     N115106   2.820   5.098   5.258  0.6694  0.2939  0.5249
  796EMI     C215107   2.952   5.073   5.272  0.2583  0.6071 -0.6159
  796EMI     N315108   3.014   5.192   5.274  0.9865 -0.2087 -0.5624
  796EMI     C415109   2.918   5.295   5.282  0.4744  0.6931  0.6118
  796EMI     C515110   2.802   5.230   5.273  0.9111 -0.1921  0.6450
  796EMI     H215111   2.999   4.974   5.283  0.9513  2.2207  1.8338
  796EMI     H415112   2.932   5.401   5.289 -1.4320 -3.0485  1.4334
  796EMI     H515113   2.704   5.275   5.261 -1.0148  2.8864 -0.4751
  796EMI    C1'15114   3.158   5.215   5.273 -0.2904  0.4067  0.6025
  796EMI    H1'15115   3.207   5.186   5.366 -1.2849 -0.5560  0.9044
  796EMI    H1'15116   3.199   5.178   5.183  4.3454  1.6694  3.0005
  796EMI    H1'15117   3.170   5.320   5.277  0.6064  0.8790 -0.0244
  796EMI    C1"15118   2.702   5.000   5.254  0.2190  0.3174  0.4511
  796EMI    H1"15119   2.735   4.912   5.202  1.7698  0.2774  0.1162
  796EMI    H1"15120   2.623   5.043   5.192 -0.7604  2.5684  2.3332
  796EMI    C2"15121   2.632   4.984   5.386  0.5143  1.1548  0.9033
  796EMI    H2"15122   2.703   4.941   5.458  0.3313  2.2498 -0.2408
  796EMI    H2"15123   2.604   5.081   5.427 -2.6294 -1.8088  0.1581
  796EMI    H2"15124   2.548   4.908   5.378 -1.4355 -1.2326  0.7608
  797EMI     N115125   5.301   3.962   4.400 -0.3322 -0.1862 -0.0473
  797EMI     C215126   5.211   3.869   4.383  0.1021  0.4258  0.3138
  797EMI     N315127   5.087   3.903   4.425  0.2142 -0.0148  0.5023
  797EMI     C415128   5.113   4.025   4.486 -0.5828 -0.4494  0.2287
  797EMI     C515129   5.238   4.062   4.459  0.4506 -0.3066 -0.5022
  797EMI     H215130   5.224   3.784   4.312  0.6303  0.7703 -1.7493
  797EMI     H415131   5.039   4.082   4.539  0.6815 -0.7685 -1.0616
  797EMI     H515132   5.288   4.156   4.485  0.3807  0.0568 -1.0895
  797EMI    C1'15133   4.949   3.854   4.399 -0.0826 -0.3892 -0.0292
  797EMI    H1'15134   4.893   3.858   4.494 -3.0587 -5.1037  1.6535
  797EMI    H1'15135   4.886   3.917   4.327 -2.9809  0.6072 -2.9125
  797EMI    H1'15136   4.947   3.754   4.363  1.8666  4.2601 -0.0731
  797EMI    C1"15137   5.448   3.963   4.372 -0.2799  0.1945  0.0600
  797EMI    H1"15138   5.494   3.880   4.426 -1.7997 -0.9523 -1.3051
  797EMI    H1"15139   5.482   4.055   4.418  0.6080  0.5746  1.6733
  797EMI    C2"15140   5.497   3.966   4.226  0.1683 -0.7945  0.2941
  797EMI    H2"15141   5.463   4.057   4.178  0.9569  2.2861 -0.5444
  797EMI    H2"15142   5.611   3.966   4.226  1.1896  1.4557 -1.9273
  797EMI    H2"15143   5.449   3.875   4.173 -1.4385 -1.5838  2.2650
  798EMI     N115144   3.630   5.644   1.972 -0.6960  0.4574  0.0512
  798EMI     C215145   3.746   5.711   2.007  0.3560  0.2134 -0.8843
  798EMI     N315146   3.766   5.820   1.932 -0.2264  0.4549  0.0605
  798EMI     C415147   3.671   5.814   1.830  0.7740  0.5757  0.4635
  798EMI     C515148   3.588   5.709   1.860 -0.0225  0.4453  0.0416
  798EMI     H215149   3.803   5.681   2.093 -0.2604  1.7618  0.6515
  798EMI     H415150   3.672   5.885   1.748  2.1800  2.4651  1.0843
  798EMI     H515151   3.513   5.671   1.794  0.1450  2.1681  0.8641
  798EMI    C1'15152   3.861   5.925   1.948 -0.4706  0.0092  0.6092
  798EMI    H1'15153   3.840   6.008   1.874 -0.9982 -0.3839 -0.7415
  798EMI    H1'15154   3.862   5.958   2.057 -0.2611  0.1576 -1.0955
  798EMI    H1'15155   3.966   5.901   1.927 -1.7715  0.3942  0.6375
  798EMI    C1"15156   3.574   5.522   2.033 -0.5861  0.4840 -0.4009
  798EMI    H1"15157   3.466   5.532   2.030 -2.5820  2.2729 -0.6891
  798EMI    H1"15158   3.598   5.507   2.141  0.7953 -1.4524  2.1515
  798EMI    C2"15159   3.627   5.406   1.945  0.0627 -0.1532 -0.0141
  798EMI    H2"15160   3.583   5.411   1.839  0.0504 -0.3553  0.5196
  798EMI    H2"15161   3.737   5.406   1.953  1.0772 -2.2522 -4.1462
  798EMI    H2"15162   3.590   5.318   1.991 -0.6042  2.3842  0.2059
  799EMI     N115163   5.417   5.623   1.781 -0.6090  0.5503  0.1021
  799EMI     C215164   5.545   5.614   1.825 -0.5173 -0.3093 -0.2112
  799EMI     N315165   5.620   5.559   1.733  0.3006  0.2293  0.0439
  799EMI     C415166   5.537   5.541   1.625  0.5064  0.1216 -0.7503
  799EMI     C515167   5.409   5.575   1.651 -0.1713 -0.1917 -0.3201
  799EMI     H215168   5.569   5.644   1.929  1.3053  0.8660  0.5246
  799EMI     H415169   5.564   5.488   1.535  0.1567  0.4496  1.6393
  799EMI     H515170   5.323   5.584   1.577  1.6921  1.6806 -1.6832
  799EMI    C1'15171   5.763   5.527   1.728 -1.0313  0.8631 -0.1830
  799EMI    H1'15172   5.820   5.609   1.699 -0.0097  2.3948  0.3463
  799EMI    H1'15173   5.802   5.483   1.821  2.8936 -0.7433  1.2510
  799EMI    H1'15174   5.778   5.456   1.643  0.2161 -1.4011 -0.0381
  799EMI    C1"15175   5.291   5.668   1.846 -0.0849  0.8450  0.2081
  799EMI    H1"15176   5.310   5.686   1.951  0.2164 -0.2009 -1.1277
  799EMI    H1"15177   5.219   5.582   1.827 -0.2586  2.2581  0.4153
  799EMI    C2"15178   5.229   5.798   1.784 -0.2615  0.2683 -0.0482
  799EMI    H2"15179   5.303   5.873   1.788 -2.1829  1.7460  0.2496
  799EMI    H2"15180   5.195   5.784   1.678 -1.6874  0.3345  2.0038
  799EMI    H2"15181   5.145   5.827   1.849 -1.1336  0.0869 -1.7467
  800EMI     N115182   4.330   0.133   0.957  0.4253  0.1422  0.8075
  800EMI     C215183   4.221   0.183   1.020  0.3908  0.1585  0.4902
  800EMI     N315184   4.254   0.224   1.146 -0.2051  0.0993  0.2528
  800EMI     C415185   4.392   0.212   1.159  0.1942 -0.0129  0.7412
  800EMI     C515186   4.438   0.157   1.042 -0.3891 -0.0932  0.0585
  800EMI     H215187   4.124   0.186   0.981 -1.6829  1.0231 -0.5248
  800EMI     H415188   4.448   0.247   1.238 -0.5583 -2.4199  0.2124
  800EMI     H515189   4.540   0.135   1.026 -0.6561 -0.6328 -1.0914
  800EMI    C1'15190   4.174   0.280   1.253 -0.0113 -0.0715 -0.5543
  800EMI    H1'15191   4.212   0.238   1.342 -2.7146  0.4106 -0.8413
  800EMI    H1'15192   4.192   0.383   1.255 -2.4379 -2.5148 -0.0033
  800EMI    H1'15193   4.063   0.270   1.237  0.9755 -1.5201  0.9533
  800EMI    C1"15194   4.336   0.055   0.833 -0.3298  0.4365  0.2542
  800EMI    H1"15195   4.234   0.061   0.784 -0.3891 -2.4014  1.6637
  800EMI    H1"15196   4.359  -0.054   0.845 -0.7435 -0.1409 -1.6308
  800EMI    C2"15197   4.451   0.113   0.745 -0.1289  0.6286  0.0146
  800EMI    H2"15198   4.540   0.093   0.797  1.5632 -0.1712  1.3555
  800EMI    H2"15199   4.452   0.065   0.657 -0.7385 -0.0834 -1.4423
  800EMI    H2"15200   4.434   0.224   0.740 -1.0807  0.1136 -0.7560
  801EMI     N115201   5.068   0.054   2.970 -0.4249 -0.1885 -0.1080
  801EMI     C215202   5.164  -0.008   3.047 -0.1096  0.2889  0.8865
  801EMI     N315203   5.239   0.081   3.111 -0.6400 -0.2918 -0.3230
  801EMI     C415204   5.195   0.206   3.073 -0.1024  1.0675  0.2105
  801EMI     C515205   5.095   0.189   2.986 -0.4478 -0.1807  0.0187
  801EMI     H215206   5.180  -0.112   3.034  1.0768 -2.8356 -0.2525
  801EMI     H415207   5.246   0.302   3.106 -0.7274  0.6924  0.1472
  801EMI     H515208   5.041   0.274   2.933  2.2342  0.4247 -0.7475
  801EMI    C1'15209   5.358   0.068   3.193  0.5152  0.2646 -0.7663
  801EMI    H1'15210   5.375   0.148   3.261  0.4008 -0.0689 -0.4422
  801EMI    H1'15211   5.351  -0.022   3.251  3.6294 -1.4920  1.0196
  801EMI    H1'15212   5.442   0.076   3.130 -1.2284  0.9405  1.1486
  801EMI    C1"15213   4.977  -0.005   2.868  0.4544 -0.0994  0.4077
  801EMI    H1"15214   4.931   0.077   2.820  2.3829  0.6522 -0.5205
  801EMI    H1"15215   4.911  -0.078   2.916  0.6401 -1.0511 -2.1465
  801EMI    C2"15216   5.052  -0.073   2.753  0.5636 -0.0362  0.3383
  801EMI    H2"15217   5.139  -0.020   2.719 -3.4841  1.9973 -1.4849
  801EMI    H2"15218   5.092  -0.167   2.793 -0.5284  0.8192  0.6845
  801EMI    H2"15219   4.992  -0.089   2.664 -0.8077 -1.3408 -1.2846
  802EMI     N115220   3.034   2.253   5.977  0.3555 -0.7835 -0.1554
  802EMI     C215221   2.908   2.263   5.927  0.4119  0.4471 -0.1429
  802EMI     N315222   2.902   2.214   5.805  0.7219  0.4262 -0.0016
  802EMI     C415223   3.032   2.168   5.771  0.4373 -0.1064  0.3144
  802EMI     C515224   3.106   2.190   5.880  0.6511 -0.4734 -0.1104
  802EMI     H215225   2.825   2.303   5.976 -1.4092  0.0947 -0.1414
  802EMI     H415226   3.066   2.134   5.673 -0.4037  0.7545  1.4129
  802EMI     H515227   3.216   2.176   5.891  0.0608  0.9747 -2.0389
  802EMI    C1'15228   2.780   2.171   5.731  0.2314 -0.9239  0.2649
  802EMI    H1'15229   2.723   2.260   5.696 -2.3019 -0.4688 -0.5424
  802EMI    H1'15230   2.804   2.099   5.656 -1.1947 -1.2337 -1.9637
  802EMI    H1'15231   2.711   2.115   5.803 -0.9471  0.7516  1.8043
  802EMI    C1"15232   3.100   2.307   6.097 -0.2050 -0.1355  0.5627
  802EMI    H1"15233   3.172   2.384   6.062 -0.3108  2.0958 -1.5245
  802EMI    H1"15234   3.154   2.232   6.148 -0.8566  3.0401  3.1594
  802EMI    C2"15235   3.003   2.358   6.199  0.0190  0.5655 -0.2326
  802EMI    H2"15236   2.955   2.444   6.157  0.7428 -1.2528 -1.9006
  802EMI    H2"15237   2.934   2.286   6.238 -2.0894 -0.4086 -1.9380
  802EMI    H2"15238   3.060   2.395   6.284 -1.5664 -2.0575 -1.4380
  803EMI     N115239   5.706   1.797   3.240  0.7768 -1.2629 -0.2404
  803EMI     C215240   5.788   1.746   3.333  0.3087 -0.2978 -0.6172
  803EMI     N315241   5.851   1.844   3.396 -0.2677  0.0520 -0.0028
  803EMI     C415242   5.807   1.962   3.345  0.2682  0.1536 -0.2089
  803EMI     C515243   5.717   1.936   3.246  0.4700 -0.4038  0.3695
  803EMI     H215244   5.797   1.645   3.360  1.0321  2.0202  0.0640
  803EMI     H415245   5.842   2.059   3.382 -3.0596  1.9650 -0.4757
  803EMI     H515246   5.653   2.004   3.187  0.3292 -4.1471 -0.7044
  803EMI    C1'15247   5.954   1.849   3.504  0.1463 -0.6582  0.2036
  803EMI    H1'15248   5.963   1.949   3.547 -0.7479  2.1028  0.7986
  803EMI    H1'15249   5.930   1.780   3.580  0.9275 -0.6437 -1.1310
  803EMI    H1'15250   6.048   1.813   3.457  0.0077  2.0842 -3.1997
  803EMI    C1"15251   5.623   1.736   3.134  0.8249 -0.1575  0.0223
  803EMI    H1"15252   5.546   1.815   3.106  0.9482  2.8489  1.3787
  803EMI    H1"15253   5.568   1.653   3.175 -0.4709  2.1204  0.3689
  803EMI    C2"15254   5.706   1.682   3.013 -0.3922  0.1778 -0.7286
  803EMI    H2"15255   5.794   1.748   2.999 -0.9822  0.6192  2.5611
  803EMI    H2"15256   5.729   1.576   3.027 -2.8007 -2.2288 -0.3203
  803EMI    H2"15257   5.640   1.675   2.931  2.0553 -0.4339 -1.1672
  804EMI     N115258   0.121   5.449   1.354 -0.2961 -0.1294  0.6144
  804EMI     C215259   0.100   5.369   1.244 -0.4209  0.0936 -0.2207
  804EMI     N315260   0.117   5.442   1.129 -0.4881 -0.4721  0.1170
  804EMI     C415261   0.159   5.567   1.169  0.2206  0.0055  0.4566
  804EMI     C515262   0.160   5.575   1.306 -0.7388  0.6211 -0.0178
  804EMI     H215263   0.065   5.265   1.248  0.2670  0.2800 -1.4773
  804EMI     H415264   0.198   5.647   1.107  0.3331  2.7679 -0.2144
  804EMI     H515265   0.193   5.655   1.365 -1.4068  1.8359  0.6037
  804EMI    C1'15266   0.124   5.392   0.993  0.1499 -0.0078  0.0038
  804EMI    H1'15267   0.133   5.281   1.007  2.7382  0.7902  0.5683
  804EMI    H1'15268   0.043   5.432   0.933  1.9650  0.1074  2.3157
  804EMI    H1'15269   0.218   5.428   0.954  2.2694 -1.8687  0.5042
  804EMI    C1"15270   0.088   5.426   1.495  0.7485 -0.2056 -0.1541
  804EMI    H1"15271   0.004   5.493   1.522  1.0733 -1.4425  0.3309
  804EMI    H1"15272   0.179   5.467   1.551  1.3255  2.7144 -1.8464
  804EMI    C2"15273   0.059   5.274   1.529 -0.5741 -0.6019 -0.3665
  804EMI    H2"15274  -0.021   5.238   1.460  0.3156 -0.2871  1.3786
  804EMI    H2"15275   0.156   5.212   1.518 -0.5726 -0.6830 -1.8755
  804EMI    H2"15276   0.013   5.258   1.624 -0.0864  2.6038 -1.7358
  805EMI     N115277   0.057   1.764   2.292 -0.8040  0.4518 -0.0150
  805EMI     C215278   0.056   1.878   2.227  0.2764  0.2760  0.0093
  805EMI     N315279  -0.030   1.864   2.123  0.2848 -0.5574  0.0376
  805EMI     C415280  -0.067   1.732   2.119  0.9861 -0.2379 -0.5407
  805EMI     C515281  -0.007   1.667   2.217 -0.6988 -0.5577 -0.2841
  805EMI     H215282   0.131   1.963   2.239  2.8459 -0.5765 -1.2518
  805EMI     H415283  -0.134   1.687   2.040  1.1839 -1.5629 -0.1667
  805EMI     H515284  -0.015   1.562   2.240  1.6469  0.2708 -0.8576
  805EMI    C1'15285  -0.068   1.957   2.015 -0.0844  0.6966  0.5336
  805EMI    H1'15286  -0.045   1.919   1.913  0.8848 -1.9879 -1.2365
  805EMI    H1'15287  -0.171   1.973   2.019  2.6222  1.4669  1.4284
  805EMI    H1'15288  -0.011   2.053   2.029 -0.9700  1.1106 -2.5693
  805EMI    C1"15289   0.132   1.732   2.414  0.5804 -0.4289  0.0974
  805EMI    H1"15290   0.237   1.691   2.397  1.2907  2.1428 -0.1998
  805EMI    H1"15291   0.080   1.651   2.459 -1.1450 -0.2205  0.4446
  805EMI    C2"15292   0.147   1.844   2.525  0.6537  0.0642 -0.0155
  805EMI    H2"15293   0.190   1.795   2.619  1.6126 -1.7255 -0.7575
  805EMI    H2"15294   0.197   1.936   2.488  0.8524  1.3199 -1.6595
  805EMI    H2"15295   0.041   1.873   2.554  1.3445 -0.5651 -0.5878
  806EMI     N115296   4.101   3.888   2.221 -0.0071 -0.3095  0.3954
  806EMI     C215297   4.136   3.920   2.349 -0.0315  0.6616  0.1185
  806EMI     N315298   4.135   4.051   2.365 -0.1496  0.9401  0.8859
  806EMI     C415299   4.100   4.106   2.241 -0.3440 -0.2443 -0.6656
  806EMI     C515300   4.077   4.006   2.155  0.0341  0.5482 -0.7218
  806EMI     H215301   4.170   3.851   2.426 -1.8881  2.3032  0.1698
  806EMI     H415302   4.117   4.205   2.206  3.5470  1.0947  2.2156
  806EMI     H515303   4.047   4.001   2.055 -1.9029 -2.1240 -0.2430
  806EMI    C1'15304   4.181   4.141   2.468  0.3905 -0.4042 -0.6619
  806EMI    H1'15305   4.284   4.121   2.479  2.2873 -1.1302  0.1074
  806EMI    H1'15306   4.164   4.245   2.447 -2.4888 -2.7540 -0.2651
  806EMI    H1'15307   4.120   4.116   2.556 -3.3132  1.5534  0.0379
  806EMI    C1"15308   4.083   3.760   2.143  0.3345 -0.3606  0.4091
  806EMI    H1"15309   3.986   3.766   2.102  1.8559  0.8281  4.1103
  806EMI    H1"15310   4.087   3.674   2.213 -1.4526  0.2016  1.0951
  806EMI    C2"15311   4.186   3.742   2.030 -0.6301 -0.1391 -0.7992
  806EMI    H2"15312   4.286   3.757   2.063  0.2780  0.6941  0.9532
  806EMI    H2"15313   4.185   3.639   1.992 -0.2925 -0.4053  0.2448
  806EMI    H2"15314   4.171   3.813   1.949 -0.6271  0.5054  0.9121
  807EMI     N115315   2.843   5.959   2.307 -0.8269 -0.0709  0.1853
  807EMI     C215316   2.746   6.038   2.283 -0.2423 -0.4930 -0.3680
  807EMI     N315317   2.628   5.971   2.313 -0.5995 -0.3071 -0.7293
  807EMI     C415318   2.662   5.840   2.353 -0.4021 -0.1759  0.2216
  807EMI     C515319   2.797   5.830   2.344  0.3567  0.8325 -0.5873
  807EMI     H215320   2.752   6.138   2.235  2.6759  2.6037  3.2492
  807EMI     H415321   2.597   5.764   2.388  3.1053 -2.4600 -1.5983
  807EMI     H515322   2.851   5.743   2.377  1.9455  0.0217  0.3439
  807EMI    C1'15323   2.490   6.006   2.287  0.2189  0.0976  0.1518
  807EMI    H1'15324   2.423   5.936   2.341  1.1107 -0.0982  0.4039
  807EMI    H1'15325   2.472   6.114   2.321 -0.3157  0.5938  0.8390
  807EMI    H1'15326   2.473   5.990   2.174  1.2770 -0.6723 -0.5597
  807EMI    C1"15327   2.992   5.985   2.307 -0.0418 -0.5908  0.4051
  807EMI    H1"15328   3.024   5.965   2.408  0.5308  1.5170  1.6808
  807EMI    H1"15329   3.009   6.088   2.274 -0.5151  0.3435  0.7063
  807EMI    C2"15330   3.063   5.884   2.219  0.3714 -0.0603  0.1729
  807EMI    H2"15331   3.057   5.779   2.260  1.7598  0.4481  1.8753
  807EMI    H2"15332   3.019   5.875   2.131  1.8559  0.2462  1.6451
  807EMI    H2"15333   3.166   5.923   2.200  0.1705 -1.6951 -1.0409
  808EMI     N115334   5.647   5.127   2.943  0.0795 -0.1055  0.6567
  808EMI     C215335   5.583   5.246   2.956 -0.1546 -1.0450  0.1689
  808EMI     N315336   5.450   5.235   2.920 -0.1050 -0.1994 -0.2192
  808EMI     C415337   5.433   5.108   2.874  0.3494 -0.0438  0.8197
  808EMI     C515338   5.548   5.041   2.894 -0.0408  0.0547 -0.7568
  808EMI     H215339   5.620   5.342   2.984 -0.8006  0.5111  1.3819
  808EMI     H415340   5.339   5.059   2.847 -1.7114  0.8465 -1.8430
  808EMI     H515341   5.570   4.927   2.888  0.1387 -1.4049  1.1675
  808EMI    C1'15342   5.353   5.347   2.912 -0.6537 -0.4053 -0.5460
  808EMI    H1'15343   5.391   5.437   2.860  0.8761  2.8071 -1.2398
  808EMI    H1'15344   5.258   5.305   2.867  0.9268 -0.0518 -1.1203
  808EMI    H1'15345   5.338   5.381   3.018  1.0900 -1.5312  0.7643
  808EMI    C1"15346   5.783   5.083   2.981  0.3733  0.2322 -0.2697
  808EMI    H1"15347   5.816   5.007   2.912 -1.5925  2.5272 -2.9917
  808EMI    H1"15348   5.774   5.043   3.079  3.2537 -0.5625 -1.2359
  808EMI    C2"15349   5.879   5.191   2.969  0.4840 -0.6567 -0.1609
  808EMI    H2"15350   5.856   5.255   3.059 -1.9396 -0.1568 -1.6057
  808EMI    H2"15351   5.984   5.159   2.962  1.5882 -0.8271 -0.1556
  808EMI    H2"15352   5.862   5.233   2.873 -1.8776 -1.7610 -1.0270
  809EMI     N115353   3.680   2.755   1.473 -0.6765  0.4990 -0.0778
  809EMI     C215354   3.624   2.872   1.434  0.6278 -0.1241 -0.9909
  809EMI     N315355   3.510   2.850   1.359 -0.7403  0.0965 -0.0071
  809EMI     C415356   3.493   2.713   1.348  0.6249 -0.0372  0.1745
  809EMI     C515357   3.591   2.653   1.422  0.1607  0.5158  0.1542
  809EMI     H215358   3.661   2.977   1.459  2.5731  1.4781  0.3798
  809EMI     H415359   3.406   2.671   1.291 -0.5068  1.0281 -0.1103
  809EMI     H515360   3.614   2.549   1.442  1.7028 -3.2314  1.0851
  809EMI    C1'15361   3.418   2.946   1.308  0.4601  0.0019  0.9382
  809EMI    H1'15362   3.444   3.047   1.333  2.0629  2.0707 -3.7585
  809EMI    H1'15363   3.424   2.949   1.195 -1.4711 -0.3186  0.3458
  809EMI    H1'15364   3.318   2.911   1.336 -1.6114  2.0592  0.8902
  809EMI    C1"15365   3.790   2.719   1.565  0.7467  0.4901  0.3174
  809EMI    H1"15366   3.853   2.661   1.504 -2.8117  0.4770 -0.2264
  809EMI    H1"15367   3.754   2.661   1.648  1.6712  0.9998 -0.0387
  809EMI    C2"15368   3.872   2.835   1.614  0.1814  0.1178 -0.4367
  809EMI    H2"15369   3.808   2.895   1.678 -0.1279  0.5471 -1.0049
  809EMI    H2"15370   3.964   2.812   1.670  4.3807  0.6265  1.0743
  809EMI    H2"15371   3.891   2.890   1.521  0.1262 -1.0179 -0.0750
  810EMI     N115372   4.483   3.584   6.161  0.3852  0.7253  0.3045
  810EMI     C215373   4.503   3.460   6.121  0.2064  0.2163  0.3410
  810EMI     N315374   4.595   3.452   6.020 -0.1074 -0.1701 -0.0876
  810EMI     C415375   4.638   3.575   6.000 -0.8140 -0.2557 -0.0697
  810EMI     C515376   4.579   3.656   6.093  0.7234  0.2399  0.6070
  810EMI     H215377   4.452   3.372   6.167 -3.4399  2.5835  0.3975
  810EMI     H415378   4.712   3.599   5.925 -0.6306 -0.2192  2.0443
  810EMI     H515379   4.598   3.761   6.100 -0.4125 -1.5799  1.4421
  810EMI    C1'15380   4.670   3.339   5.963 -0.1449  0.0636 -0.7250
  810EMI    H1'15381   4.730   3.365   5.880 -1.5071 -1.3494  0.5044
  810EMI    H1'15382   4.732   3.302   6.038 -0.5730  3.1341  0.8696
  810EMI    H1'15383   4.597   3.264   5.946 -0.6634  0.1021  2.2682
  810EMI    C1"15384   4.390   3.636   6.262 -0.2893  0.3311 -0.0773
  810EMI    H1"15385   4.454   3.668   6.346  0.6885  0.0018 -0.0613
  810EMI    H1"15386   4.323   3.549   6.289 -0.0055  0.1975 -1.6199
  810EMI    C2"15387   4.309   3.754   6.223  0.2666  0.3930  0.3401
  810EMI    H2"15388   4.368   3.833   6.194 -0.6734  0.0069 -1.6199
  810EMI    H2"15389   4.260   3.725   6.135  0.6062  2.0115 -0.6549
  810EMI    H2"15390   4.237   3.782   6.297  0.9995  1.5886 -1.6909
  811EMI     N115391   0.530   1.583   2.813  0.0599 -0.6152  0.2188
  811EMI     C215392   0.535   1.712   2.860 -0.1001  0.3808  0.8603
  811EMI     N315393   0.498   1.792   2.753 -0.4133  0.3407 -0.1095
  811EMI     C415394   0.488   1.713   2.638 -0.6258 -1.0598 -0.4012
  811EMI     C515395   0.498   1.587   2.676 -0.3218 -0.5477  0.0322
  811EMI     H215396   0.547   1.739   2.965 -0.9564  1.9116 -2.8411
  811EMI     H415397   0.472   1.751   2.539  1.7687 -0.9983 -0.4687
  811EMI     H515398   0.488   1.514   2.595  1.6862  1.4771 -2.2235
  811EMI    C1'15399   0.479   1.940   2.757  0.2719  0.3935 -0.2557
  811EMI    H1'15400   0.561   1.982   2.816 -0.3639  2.6291 -2.1238
  811EMI    H1'15401   0.501   1.972   2.650  2.2326 -0.8593 -1.2934
  811EMI    H1'15402   0.389   1.982   2.803 -0.8927  0.7649  0.5275
  811EMI    C1"15403   0.562   1.455   2.881  0.1193 -0.7166  0.5562
  811EMI    H1"15404   0.568   1.470   2.989  1.6751 -1.8855 -0.9389
  811EMI    H1"15405   0.652   1.413   2.847 -3.1904  0.9206  0.7316
  811EMI    C2"15406   0.455   1.348   2.845  0.2966  0.3441  0.0465
  811EMI    H2"15407   0.482   1.255   2.896 -3.3154 -1.2545  0.9627
  811EMI    H2"15408   0.360   1.381   2.880 -1.4005 -2.9061  0.4146
  811EMI    H2"15409   0.464   1.320   2.737 -3.1304  0.0580  1.5034
  812EMI     N115410   4.608   2.717   5.124  0.1156 -0.3269 -0.5446
  812EMI     C215411   4.729   2.720   5.179 -0.1905  0.3089 -0.2106
  812EMI     N315412   4.826   2.686   5.089 -1.1379 -0.0736 -0.1143
  812EMI     C415413   4.759   2.662   4.972  0.1183  0.0911 -0.3057
  812EMI     C515414   4.629   2.688   4.990 -0.7599 -0.0967  0.4672
  812EMI     H215415   4.736   2.755   5.279  0.5923 -2.3098  1.0100
  812EMI     H415416   4.808   2.650   4.873 -1.4053 -1.4355  0.3850
  812EMI     H515417   4.547   2.696   4.919  4.0350 -3.3707 -2.5462
  812EMI    C1'15418   4.974   2.672   5.104  0.1547  1.1018  0.2185
  812EMI    H1'15419   4.992   2.567   5.117  0.1886  0.6880  1.2055
  812EMI    H1'15420   5.018   2.716   5.019  1.3163 -2.2827 -2.5448
  812EMI    H1'15421   4.996   2.728   5.196 -1.4391  1.8670 -1.2045
  812EMI    C1"15422   4.478   2.734   5.190  0.4530 -0.3710 -0.5550
  812EMI    H1"15423   4.426   2.802   5.129  2.4048 -2.0416  1.4380
  812EMI    H1"15424   4.490   2.775   5.287 -1.6322 -0.3313 -2.0569
  812EMI    C2"15425   4.409   2.598   5.196  0.8252 -0.8469  0.3023
  812EMI    H2"15426   4.423   2.547   5.103  0.2847  0.3161 -3.6852
  812EMI    H2"15427   4.446   2.538   5.283  0.5113 -0.6711 -1.2760
  812EMI    H2"15428   4.302   2.603   5.206  2.6935  0.5387  1.9183
  813EMI     N115429   5.326   2.663   6.268 -0.1758  0.1313  0.0901
  813EMI     C215430   5.354   2.588   6.377  0.1193 -0.5630  0.7189
  813EMI     N315431   5.493   2.564   6.376  0.2644 -0.5785 -0.1346
  813EMI     C415432   5.554   2.629   6.273 -0.3714 -0.6524 -0.4117
  813EMI     C515433   5.448   2.699   6.207 -0.5476 -0.8078 -0.2612
  813EMI     H215434   5.291   2.553   6.454 -0.0544  1.2347  0.2237
  813EMI     H415435   5.662   2.644   6.261  0.3029  0.1759  1.8004
  813EMI     H515436   5.453   2.764   6.118 -0.9188  0.7262  1.0498
  813EMI    C1'15437   5.575   2.482   6.470 -0.4916  0.3885  0.6861
  813EMI    H1'15438   5.525   2.474   6.569  0.5297 -0.3027  2.0874
  813EMI    H1'15439   5.584   2.383   6.435  0.6476 -0.1758  1.7961
  813EMI    H1'15440   5.682   2.519   6.474  0.6710 -0.3027  2.2847
  813EMI    C1"15441   5.198   2.726   6.225  0.5084 -0.3797 -0.5982
  813EMI    H1"15442   5.226   2.797   6.150 -1.4351 -0.6576  2.8327
  813EMI    H1"15443   5.147   2.777   6.306  0.1637 -1.7356  1.5243
  813EMI    C2"15444   5.120   2.613   6.157 -0.1106  0.5403  0.4069
  813EMI    H2"15445   5.143   2.603   6.054  0.9736 -1.2475 -0.1341
  813EMI    H2"15446   5.126   2.519   6.216 -0.7154 -2.5119 -0.5498
  813EMI    H2"15447   5.018   2.645   6.141  0.7193  0.5528 -0.5049
  814EMI     N115448   3.968   1.154   2.663  0.0814 -0.4005 -0.5071
  814EMI     C215449   4.100   1.175   2.659 -0.8281  0.2043 -0.2840
  814EMI     N315450   4.127   1.298   2.699 -0.3197 -0.0079 -0.1783
  814EMI     C415451   4.007   1.359   2.725 -0.2201  0.1791  0.3303
  814EMI     C515452   3.908   1.274   2.693  0.1047  0.5863  0.3505
  814EMI     H215453   4.162   1.096   2.640 -3.0962  0.4897  1.8248
  814EMI     H415454   3.991   1.455   2.754  0.3488 -2.0849 -2.2888
  814EMI     H515455   3.798   1.298   2.703  1.0731  1.9378  1.7613
  814EMI    C1'15456   4.251   1.367   2.734  0.6528 -0.0600 -0.6850
  814EMI    H1'15457   4.327   1.352   2.658 -0.9192  0.7991 -1.9925
  814EMI    H1'15458   4.239   1.478   2.744 -2.5075 -0.6792 -1.7445
  814EMI    H1'15459   4.279   1.325   2.828  1.2254 -0.2623 -1.6407
  814EMI    C1"15460   3.886   1.041   2.622  1.0238  0.0078 -0.1316
  814EMI    H1"15461   3.916   0.989   2.520 -0.8712  1.1879 -1.8155
  814EMI    H1"15462   3.783   1.078   2.608  3.0973  1.1980  1.3947
  814EMI    C2"15463   3.894   0.931   2.730 -0.3908 -0.5717 -0.1124
  814EMI    H2"15464   3.863   0.957   2.831  1.8847 -1.9676  1.2421
  814EMI    H2"15465   3.818   0.858   2.699 -3.1451  0.1258  0.7249
  814EMI    H2"15466   3.999   0.897   2.739  0.7818 -2.2806  0.6732
  815EMI     N115467   1.549   0.576   4.611 -0.0352  0.3666 -0.1345
  815EMI     C215468   1.587   0.677   4.526 -0.0956  0.9549  0.0246
  815EMI     N315469   1.494   0.705   4.433 -0.3944 -0.3000 -0.0260
  815EMI     C415470   1.388   0.621   4.453 -0.2790  0.3333 -0.2447
  815EMI     C515471   1.421   0.552   4.567 -0.7532  0.2368  0.1049
  815EMI     H215472   1.675   0.739   4.534 -0.6876 -1.2693 -0.2240
  815EMI     H415473   1.295   0.639   4.408 -0.8260  3.4214  0.4321
  815EMI     H515474   1.354   0.485   4.616 -1.3186 -0.1257  1.9805
  815EMI    C1'15475   1.503   0.816   4.339 -0.0802  0.9253 -0.2293
  815EMI    H1'15476   1.420   0.816   4.270 -0.1434  0.6318  0.4502
  815EMI    H1'15477   1.501   0.911   4.388  1.1867  1.5465  1.4865
  815EMI    H1'15478   1.599   0.808   4.286  0.3687  0.1368  4.8105
  815EMI    C1"15479   1.590   0.522   4.741 -0.7775 -0.3897  0.4022
  815EMI    H1"15480   1.507   0.507   4.808 -1.9703  0.2115  0.7263
  815EMI    H1"15481   1.657   0.594   4.793 -1.9650  2.4190 -1.0458
  815EMI    C2"15482   1.674   0.388   4.720  0.4538  0.0901  0.0720
  815EMI    H2"15483   1.615   0.307   4.668  1.0553 -0.2949  0.4405
  815EMI    H2"15484   1.759   0.413   4.658  1.0877  2.8985 -0.1228
  815EMI    H2"15485   1.712   0.356   4.817 -0.7027  0.0466 -0.3187
  816EMI     N115486   5.769   3.064   5.479  0.4638 -0.2397  0.8742
  816EMI     C215487   5.876   2.999   5.524 -0.0111 -0.0741  0.2798
  816EMI     N315488   5.986   3.062   5.482  0.7456  0.7252 -0.4931
  816EMI     C415489   5.948   3.178   5.422  0.8291 -0.5914 -0.3636
  816EMI     C515490   5.812   3.182   5.425 -0.5184 -0.6078 -0.0564
  816EMI     H215491   5.865   2.914   5.584  0.7613  1.4956 -1.7774
  816EMI     H415492   6.012   3.258   5.387  1.9484  2.2869  0.7147
  816EMI     H515493   5.744   3.255   5.382 -2.5320 -2.4836 -1.4359
  816EMI    C1'15494   6.132   3.035   5.520 -0.6583 -0.1868  0.7620
  816EMI    H1'15495   6.138   2.928   5.540 -0.7308 -1.8772  0.7892
  816EMI    H1'15496   6.198   3.072   5.443  2.3460  2.1434  1.3791
  816EMI    H1'15497   6.146   3.096   5.614 -0.6481  0.8362  0.4512
  816EMI    C1"15498   5.625   3.034   5.497  0.0002 -0.0020  0.6759
  816EMI    H1"15499   5.620   2.941   5.556  1.7369  0.4090 -0.0491
  816EMI    H1"15500   5.584   3.019   5.395  1.1439 -1.1492  0.8341
  816EMI    C2"15501   5.551   3.150   5.567  0.0184 -0.5109  0.4879
  816EMI    H2"15502   5.611   3.192   5.652 -0.2654  2.1795 -0.9414
  816EMI    H2"15503   5.527   3.232   5.500 -0.9573  1.5076 -1.5385
  816EMI    H2"15504   5.462   3.109   5.608  0.6008 -1.7825  0.8223
  817EMI     N115505   0.304   4.751   4.870 -0.0350 -0.6338  0.4643
  817EMI     C215506   0.284   4.794   4.997  0.4562 -0.2678 -0.0639
  817EMI     N315507   0.397   4.769   5.069 -0.3688 -0.1173 -1.0010
  817EMI     C415508   0.490   4.718   4.980  0.0730  0.3102 -0.5361
  817EMI     C515509   0.433   4.707   4.863 -0.4428  0.1421  0.1401
  817EMI     H215510   0.187   4.835   5.036 -2.7566  1.3091  0.8323
  817EMI     H415511   0.595   4.684   5.007  3.7852 -0.3427 -0.2808
  817EMI     H515512   0.483   4.666   4.777 -1.2658  4.1517  0.7245
  817EMI    C1'15513   0.425   4.799   5.214  0.2075  0.6009 -0.2451
  817EMI    H1'15514   0.472   4.717   5.261 -0.2387  0.0983 -1.6644
  817EMI    H1'15515   0.495   4.878   5.215 -0.8888 -1.9747 -2.8515
  817EMI    H1'15516   0.337   4.837   5.270  0.9330 -2.1392 -0.0254
  817EMI    C1"15517   0.219   4.758   4.748  0.1893 -0.0970 -0.6700
  817EMI    H1"15518   0.279   4.732   4.664  0.2226  1.4187  0.3503
  817EMI    H1"15519   0.191   4.861   4.736 -1.2581  0.6263  0.4384
  817EMI    C2"15520   0.097   4.665   4.758 -0.6643  0.4608  0.9683
  817EMI    H2"15521   0.059   4.638   4.861  0.4402 -2.6090 -0.5111
  817EMI    H2"15522   0.006   4.702   4.709  0.8800 -2.6233 -1.4576
  817EMI    H2"15523   0.107   4.575   4.699  0.2059  1.9166 -1.2837
  818EMI     N115524   0.587   3.112   3.818 -0.6223  0.2627  0.5080
  818EMI     C215525   0.585   3.037   3.704  0.1748  0.4040  0.1186
  818EMI     N315526   0.511   3.103   3.617  0.5486  0.0001  0.0055
  818EMI     C415527   0.446   3.210   3.678  0.3422  0.5822 -0.1279
  818EMI     C515528   0.503   3.219   3.799 -0.5663  0.6855 -0.6445
  818EMI     H215529   0.638   2.941   3.703  0.2609  0.4604  0.0124
  818EMI     H415530   0.377   3.278   3.632  1.9572  1.0351  0.3455
  818EMI     H515531   0.473   3.291   3.878  1.1580 -1.4560 -1.4869
  818EMI    C1'15532   0.483   3.070   3.475 -0.1416 -0.2378 -0.2247
  818EMI    H1'15533   0.456   2.963   3.474  2.0155 -0.7771 -0.7959
  818EMI    H1'15534   0.400   3.126   3.440  0.6533 -1.9105  1.1358
  818EMI    H1'15535   0.578   3.090   3.413  1.7566 -1.5557  1.1858
  818EMI    C1"15536   0.643   3.082   3.953  0.6675  0.1968  0.4150
  818EMI    H1"15537   0.660   3.178   4.016 -1.7991  3.3940  2.4190
  818EMI    H1"15538   0.728   3.017   3.943  0.0578 -1.5600 -2.3876
  818EMI    C2"15539   0.540   2.997   4.040 -0.4269 -0.6957  0.4459
  818EMI    H2"15540   0.438   3.035   4.026  1.3934  1.1140 -0.2967
  818EMI    H2"15541   0.536   2.892   4.002 -0.5529 -0.4437 -0.0793
  818EMI    H2"15542   0.584   2.995   4.150 -0.6746  0.0705  2.2093
  819EMI     N115543   1.484   4.196   0.342 -0.4563 -0.3647 -0.5182
  819EMI     C215544   1.611   4.238   0.372 -0.0317 -0.2863  0.1162
  819EMI     N315545   1.627   4.366   0.329  0.3075 -0.1794  0.4032
  819EMI     C415546   1.511   4.400   0.263 -0.5595  0.9823 -0.0201
  819EMI     C515547   1.419   4.299   0.274 -0.2126  0.1139 -0.1273
  819EMI     H215548   1.696   4.193   0.417  2.1763  1.0951  0.8734
  819EMI     H415549   1.498   4.492   0.209  0.9701 -1.9777 -3.9704
  819EMI     H515550   1.319   4.289   0.231 -0.0151  3.9493  0.9997
  819EMI    C1'15551   1.740   4.458   0.348 -0.0684  0.3002  0.4256
  819EMI    H1'15552   1.756   4.515   0.250  1.4803  4.5088 -0.8845
  819EMI    H1'15553   1.739   4.519   0.437 -2.2140  0.5830  0.4300
  819EMI    H1'15554   1.825   4.390   0.357 -0.3382 -0.6624  1.7254
  819EMI    C1"15555   1.414   4.069   0.362  0.3135 -0.5340  0.4448
  819EMI    H1"15556   1.424   3.999   0.282 -0.6842 -1.2988 -0.3034
  819EMI    H1"15557   1.312   4.089   0.373  1.1282 -1.7497 -2.2757
  819EMI    C2"15558   1.468   4.005   0.486 -0.3138  0.0623  0.3253
  819EMI    H2"15559   1.452   4.061   0.571 -2.2339 -0.6859 -0.6259
  819EMI    H2"15560   1.397   3.920   0.511 -0.7564 -3.8983  1.9189
  819EMI    H2"15561   1.566   3.976   0.472 -2.1709  1.1538  0.6683
  820EMI     N115562   3.548   1.873   3.442 -0.0388 -0.0494 -0.0861
  820EMI     C215563   3.501   1.836   3.320  0.1476 -1.1893 -0.4498
  820EMI     N315564   3.384   1.765   3.336  0.1811  0.6029  0.2800
  820EMI     C415565   3.360   1.744   3.466  0.1912  0.2380 -0.7858
  820EMI     C515566   3.459   1.813   3.532 -0.1437 -0.6619 -0.5123
  820EMI     H215567   3.550   1.873   3.231 -1.3085 -1.3091 -0.7083
  820EMI     H415568   3.270   1.687   3.498 -0.9605 -1.9240 -0.0982
  820EMI     H515569   3.466   1.833   3.641 -2.5962  2.7959  1.6087
  820EMI    C1'15570   3.297   1.704   3.234 -1.1051 -0.3042  0.4284
  820EMI    H1'15571   3.205   1.661   3.282  0.5583  1.2259  2.5415
  820EMI    H1'15572   3.266   1.793   3.160 -1.7971  0.8670 -3.6067
  820EMI    H1'15573   3.355   1.627   3.179 -1.8103  1.5837  0.4736
  820EMI    C1"15574   3.664   1.951   3.485  0.4585  0.9701  0.5635
  820EMI    H1"15575   3.748   1.938   3.406  0.3352  0.2128 -1.9884
  820EMI    H1"15576   3.699   1.911   3.582  0.5708  1.7416  1.2366
  820EMI    C2"15577   3.620   2.099   3.493  0.0485  0.0684 -0.3960
  820EMI    H2"15578   3.578   2.130   3.405 -2.1887 -0.3129  1.8959
  820EMI    H2"15579   3.543   2.123   3.557 -0.1708  1.3132 -0.1371
  820EMI    H2"15580   3.706   2.153   3.521 -1.7021  1.2212  1.6319
  821EMI     N115581   5.117   1.649   3.321  0.2310 -0.1594  0.6429
  821EMI     C215582   5.228   1.616   3.388 -0.9915  0.5703 -0.1971
  821EMI     N315583   5.314   1.724   3.389  0.3167  0.3772 -0.2386
  821EMI     C415584   5.259   1.820   3.309  0.1028  0.0405  0.5954
  821EMI     C515585   5.137   1.776   3.271  0.3575  0.8614 -0.3215
  821EMI     H215586   5.245   1.522   3.442  0.8705 -0.0965  0.9188
  821EMI     H415587   5.311   1.909   3.278  2.4951 -0.0330 -3.2134
  821EMI     H515588   5.071   1.852   3.214 -2.5269  3.9786 -1.1958
  821EMI    C1'15589   5.444   1.731   3.458 -1.0754  0.0722  0.2529
  821EMI    H1'15590   5.512   1.654   3.426  0.7902 -1.1200 -1.4246
  821EMI    H1'15591   5.494   1.823   3.438  1.5394 -0.7197 -1.8013
  821EMI    H1'15592   5.442   1.717   3.562  0.9319 -2.2163  0.4291
  821EMI    C1"15593   4.991   1.575   3.306 -0.3252 -0.2305 -0.2296
  821EMI    H1"15594   4.969   1.586   3.196  0.6831 -0.3018 -1.2629
  821EMI    H1"15595   4.910   1.636   3.348  1.5467 -1.0221  0.0780
  821EMI    C2"15596   5.000   1.424   3.342 -0.2417 -0.6675  0.2941
  821EMI    H2"15597   4.974   1.410   3.447 -2.2506 -2.8592  1.2036
  821EMI    H2"15598   4.923   1.373   3.286  1.3322 -1.6673  0.0083
  821EMI    H2"15599   5.104   1.396   3.315  1.5755  0.6222  0.8978
  822EMI     N115600   5.952   1.502   2.236 -0.1141 -0.3028  0.1729
  822EMI     C215601   5.928   1.494   2.101 -0.3888 -0.2229  0.1398
  822EMI     N315602   5.886   1.616   2.059  0.2483  1.0859  0.2621
  822EMI     C415603   5.893   1.697   2.168  0.0045  0.3708  0.0751
  822EMI     C515604   5.921   1.628   2.278 -0.5706 -0.8354 -0.3236
  822EMI     H215605   5.949   1.418   2.030  1.1977  3.0805  1.3383
  822EMI     H415606   5.886   1.804   2.171 -1.8432  1.9821  2.3880
  822EMI     H515607   5.928   1.673   2.381  0.6678  1.1799 -0.9273
  822EMI    C1'15608   5.858   1.665   1.923 -0.0886 -0.1086  0.6196
  822EMI    H1'15609   5.765   1.720   1.915 -0.1725 -2.6579  1.9727
  822EMI    H1'15610   5.939   1.725   1.883 -0.8600  2.6686  0.7942
  822EMI    H1'15611   5.850   1.578   1.850  0.0213 -1.3927 -0.7874
  822EMI    C1"15612   5.987   1.387   2.331  0.6438  0.1840 -0.2657
  822EMI    H1"15613   5.923   1.309   2.306  0.8331 -0.1334 -2.4242
  822EMI    H1"15614   5.987   1.426   2.424  2.5288  0.0452 -0.7732
  822EMI    C2"15615   6.128   1.349   2.299 -0.2970  0.1446 -0.4012
  822EMI    H2"15616   6.123   1.331   2.192  1.2570  2.4652 -1.6327
  822EMI    H2"15617   6.206   1.419   2.336 -2.2991  0.1682 -0.2530
  822EMI    H2"15618   6.151   1.255   2.344 -1.2489  1.5269  0.5661
  823EMI     N115619   6.236   1.927   1.396  0.7006 -0.7140 -0.3894
  823EMI     C215620   6.327   1.827   1.378 -0.3494 -0.1017 -1.0376
  823EMI     N315621   6.395   1.841   1.265 -0.4013 -0.2376 -0.2771
  823EMI     C415622   6.341   1.944   1.191 -0.2321 -0.1924 -0.3756
  823EMI     C515623   6.248   1.994   1.273  0.2435 -0.5566  0.2105
  823EMI     H215624   6.334   1.743   1.451  3.2862  1.3923  1.2728
  823EMI     H415625   6.366   1.977   1.098  1.3000 -1.6269  0.0426
  823EMI     H515626   6.186   2.082   1.246  0.2809 -3.1030 -3.8612
  823EMI    C1'15627   6.515   1.776   1.206 -0.1784 -0.1150  0.3660
  823EMI    H1'15628   6.489   1.693   1.141 -1.6644  1.5401 -0.3542
  823EMI    H1'15629   6.579   1.852   1.159  0.0265  1.0355  3.2103
  823EMI    H1'15630   6.567   1.736   1.294 -1.6102  0.5840  0.9508
  823EMI    C1"15631   6.143   1.951   1.504  0.8534 -0.5372  0.1657
  823EMI    H1"15632   6.144   1.868   1.579  0.4671  1.7845  1.2323
  823EMI    H1"15633   6.047   1.971   1.463  0.3038  0.3875 -1.4175
  823EMI    C2"15634   6.195   2.074   1.575 -0.4866  0.6014 -0.2076
  823EMI    H2"15635   6.192   2.158   1.500 -2.6206 -0.3570 -0.0216
  823EMI    H2"15636   6.127   2.103   1.659 -1.8519  2.9580  1.9603
  823EMI    H2"15637   6.295   2.051   1.609 -0.5749  0.2659 -0.3877
  824EMI     N115638   4.840   6.323   2.311  0.3014 -0.0675  0.2971
  824EMI     C215639   4.715   6.332   2.262  0.1047 -0.1750 -0.0878
  824EMI     N315640   4.657   6.216   2.290 -0.4110 -0.1201  0.1501
  824EMI     C415641   4.747   6.127   2.344 -0.1111  0.2133  0.6969
  824EMI     C515642   4.856   6.199   2.359 -0.1150  0.4334  0.8492
  824EMI     H215643   4.665   6.414   2.218  2.4593  0.7697 -0.0985
  824EMI     H415644   4.738   6.022   2.367  0.5990 -1.6748 -0.6202
  824EMI     H515645   4.942   6.175   2.417 -0.1416  1.4279 -1.6432
  824EMI    C1'15646   4.511   6.174   2.290 -0.2382  0.6927 -0.1611
  824EMI    H1'15647   4.492   6.098   2.207 -0.6724 -0.5826 -0.6273
  824EMI    H1'15648   4.492   6.131   2.386 -1.8077 -1.1301 -3.6427
  824EMI    H1'15649   4.437   6.255   2.274 -1.6587  0.5933  1.9518
  824EMI    C1"15650   4.938   6.429   2.335  0.3581  0.3141  0.4669
  824EMI    H1"15651   4.967   6.449   2.232 -2.6396 -3.5865  1.8938
  824EMI    H1"15652   5.022   6.392   2.410  1.6141 -1.1274  0.6305
  824EMI    C2"15653   4.877   6.561   2.387  0.4428  0.8199  0.3004
  824EMI    H2"15654   4.770   6.553   2.370  2.0710 -1.2963  0.9572
  824EMI    H2"15655   4.896   6.570   2.492 -0.2972  1.4277 -0.9669
  824EMI    H2"15656   4.917   6.654   2.336  0.0756  1.1203  0.2916
  825EMI     N115657   5.936   1.228   1.563 -1.0059  0.4878 -0.0861
  825EMI     C215658   5.933   1.360   1.558 -1.2495  0.0645 -0.2175
  825EMI     N315659   5.810   1.407   1.548 -0.7056  0.2031 -0.2498
  825EMI     C415660   5.725   1.302   1.530  0.1021  0.7340  0.1528
  825EMI     C515661   5.802   1.193   1.545 -0.0210  0.4048 -1.0005
  825EMI     H215662   6.022   1.422   1.558 -0.5307 -0.0042 -1.4655
  825EMI     H415663   5.617   1.298   1.506  0.5931  0.7079 -0.5300
  825EMI     H515664   5.764   1.091   1.546 -0.8500 -0.6776  1.3947
  825EMI    C1'15665   5.765   1.544   1.524 -0.7383 -0.6477  0.4420
  825EMI    H1'15666   5.858   1.601   1.530  1.1557 -0.0197 -0.6888
  825EMI    H1'15667   5.722   1.550   1.419 -0.7701 -0.1608  0.2749
  825EMI    H1'15668   5.690   1.573   1.597  1.2925  1.6112  1.1405
  825EMI    C1"15669   6.046   1.135   1.584  0.2670 -0.7122 -0.1324
  825EMI    H1"15670   6.021   1.037   1.540 -3.0924 -1.3502  0.2684
  825EMI    H1"15671   6.076   1.133   1.686 -0.6620 -0.9345 -2.3519
  825EMI    C2"15672   6.169   1.188   1.511  0.2600  0.3018 -0.3968
  825EMI    H2"15673   6.210   1.272   1.572  2.2547  0.4565  2.9519
  825EMI    H2"15674   6.251   1.115   1.503  1.5268  0.7824  1.2153
  825EMI    H2"15675   6.132   1.215   1.415  0.0290  0.5910 -0.1042
  826EMI     N115676   1.965   2.222   3.459 -0.2858  0.4302  0.2521
  826EMI     C215677   1.900   2.336   3.422  0.6102 -0.2051  0.0996
  826EMI     N315678   1.985   2.437   3.430  0.4829 -0.2375 -0.2367
  826EMI     C415679   2.109   2.395   3.463 -0.1077  0.5197  0.2064
  826EMI     C515680   2.099   2.261   3.471 -0.3591  0.6732 -0.3895
  826EMI     H215681   1.789   2.350   3.403 -3.1724  1.2999  2.8753
  826EMI     H415682   2.202   2.455   3.459  1.6059 -1.2023 -0.7909
  826EMI     H515683   2.189   2.193   3.472 -2.5286  1.0684 -1.8837
  826EMI    C1'15684   1.953   2.583   3.405 -0.5440  0.3360  0.0356
  826EMI    H1'15685   1.958   2.614   3.305 -1.1909  1.2984  0.0221
  826EMI    H1'15686   1.853   2.605   3.448  0.0404  0.9247 -0.5432
  826EMI    H1'15687   2.040   2.641   3.457  1.4089  2.3639  0.6299
  826EMI    C1"15688   1.914   2.091   3.504  0.5718  0.1786 -0.0765
  826EMI    H1"15689   1.982   2.009   3.482 -0.8841 -0.1876  2.7166
  826EMI    H1"15690   1.817   2.078   3.454  1.7994 -0.9803  3.7320
  826EMI    C2"15691   1.880   2.102   3.652  0.3967  0.2936  0.3268
  826EMI    H2"15692   1.821   2.011   3.688 -0.4325 -2.0033 -1.9345
  826EMI    H2"15693   1.962   2.126   3.719 -0.6869 -1.2327  1.3395
  826EMI    H2"15694   1.809   2.181   3.663 -0.5929  1.0331 -1.4132
  827EMI     N115695   4.299   5.707   4.707 -0.4376  0.5366 -0.0066
  827EMI     C215696   4.341   5.792   4.606  0.3717  0.1972  0.2637
  827EMI     N315697   4.477   5.805   4.615 -0.7894  0.3496  0.1497
  827EMI     C415698   4.519   5.723   4.727  0.8677  0.1428 -0.0407
  827EMI     C515699   4.414   5.660   4.774  0.3105  0.7313 -1.0750
  827EMI     H215700   4.275   5.849   4.533 -0.4342  0.7503 -1.0804
  827EMI     H415701   4.622   5.720   4.756  0.9756  0.8665  3.4785
  827EMI     H515702   4.417   5.582   4.850 -0.2673  0.3402 -3.3590
  827EMI    C1'15703   4.570   5.888   4.533 -0.6564  0.2516 -0.9005
  827EMI    H1'15704   4.516   5.982   4.518 -0.2026 -0.2259  0.3460
  827EMI    H1'15705   4.663   5.895   4.592 -1.6730 -1.6149 -1.9237
  827EMI    H1'15706   4.584   5.826   4.441  0.7235 -0.4050  1.5008
  827EMI    C1"15707   4.168   5.656   4.733 -0.1489 -0.9619  0.3878
  827EMI    H1"15708   4.157   5.553   4.707 -2.0401  0.2935 -1.1623
  827EMI    H1"15709   4.098   5.713   4.661 -0.5585  0.9827  0.8012
  827EMI    C2"15710   4.116   5.695   4.872  0.4382 -0.5302  0.1573
  827EMI    H2"15711   4.178   5.638   4.944 -1.1592  0.6756 -1.1281
  827EMI    H2"15712   4.124   5.802   4.893 -2.6792 -0.7918  0.3567
  827EMI    H2"15713   4.017   5.647   4.883  0.7066 -0.5907 -0.0332
  828EMI     N115714   3.874   2.069   2.693  0.0860  0.4196  0.1143
  828EMI     C215715   3.993   1.993   2.713 -0.5358 -1.1295  0.3980
  828EMI     N315716   3.961   1.892   2.799  0.4008 -0.2790 -0.2482
  828EMI     C415717   3.832   1.913   2.848  0.2893 -0.6308 -0.0957
  828EMI     C515718   3.776   2.016   2.777 -0.5449 -0.3581  0.1621
  828EMI     H215719   4.086   2.003   2.662 -2.7184 -1.5721 -0.6590
  828EMI     H415720   3.778   1.850   2.926 -3.2604  0.2784  3.4080
  828EMI     H515721   3.677   2.066   2.783 -2.4511 -0.5730  0.3113
  828EMI    C1'15722   4.039   1.780   2.846 -0.6233 -0.4541  0.5599
  828EMI    H1'15723   4.057   1.707   2.763  0.4700  1.8951 -3.2893
  828EMI    H1'15724   4.135   1.819   2.876 -3.5478 -0.5370 -0.6978
  828EMI    H1'15725   3.986   1.725   2.926 -0.4108  1.0385  1.2773
  828EMI    C1"15726   3.838   2.179   2.597 -0.3830  0.5167  0.5331
  828EMI    H1"15727   3.862   2.278   2.639 -1.4375  0.4887 -2.2972
  828EMI    H1"15728   3.743   2.181   2.558  0.1416  1.5114 -0.3678
  828EMI    C2"15729   3.923   2.164   2.474 -0.7383 -0.6909 -0.4031
  828EMI    H2"15730   3.928   2.062   2.443  2.3063  0.4193 -0.2570
  828EMI    H2"15731   3.889   2.230   2.397  1.8131  1.8744 -1.0211
  828EMI    H2"15732   4.029   2.189   2.504  1.3924 -2.1338 -0.2793
  829EMI     N115733   1.041   2.928   5.602 -0.6925 -0.6610  0.2652
  829EMI     C215734   1.036   2.794   5.578  0.1055  0.0838  0.2060
  829EMI     N315735   1.092   2.774   5.455  0.8101  0.8598  0.2936
  829EMI     C415736   1.139   2.896   5.407 -0.6289 -0.4726 -0.3022
  829EMI     C515737   1.100   2.989   5.497 -0.0423 -0.2257 -0.0635
  829EMI     H215738   0.991   2.709   5.633  2.1165  0.0828  0.2506
  829EMI     H415739   1.195   2.918   5.316  0.1859 -2.6141 -1.3970
  829EMI     H515740   1.123   3.096   5.479  2.3149 -2.2420  0.6300
  829EMI    C1'15741   1.130   2.645   5.390  0.1617 -0.2435  0.0736
  829EMI    H1'15742   1.133   2.655   5.282  2.7648 -0.7680 -1.8072
  829EMI    H1'15743   1.228   2.623   5.427 -1.7323 -0.0716 -0.6423
  829EMI    H1'15744   1.052   2.566   5.408  1.3710 -0.2687  0.8449
  829EMI    C1"15745   1.005   3.003   5.724 -0.5390  0.2188 -0.5737
  829EMI    H1"15746   0.917   2.960   5.759 -1.3753 -0.7622  0.8883
  829EMI    H1"15747   0.976   3.104   5.686  0.1803 -0.7766 -0.4681
  829EMI    C2"15748   1.115   3.017   5.831  0.0250  0.2461  0.3150
  829EMI    H2"15749   1.164   2.925   5.863  0.7954  1.4239  0.6171
  829EMI    H2"15750   1.181   3.088   5.783 -2.0855  1.0725  0.2021
  829EMI    H2"15751   1.069   3.054   5.918 -1.8838  1.0324 -0.0102
  830EMI     N115752   0.396   1.984   5.185  0.4032  0.2750  1.3807
  830EMI     C215753   0.471   1.878   5.198 -0.2895  0.0129  0.0086
  830EMI     N315754   0.406   1.765   5.165 -0.0711 -0.2722 -0.0825
  830EMI     C415755   0.276   1.805   5.142  0.4707  0.1371  1.0298
  830EMI     C515756   0.274   1.940   5.143 -0.1218  1.2437 -0.0798
  830EMI     H215757   0.567   1.868   5.249 -2.5888 -0.8704 -1.2293
  830EMI     H415758   0.198   1.736   5.120  0.2146 -0.6999 -1.3526
  830EMI     H515759   0.187   1.997   5.129  0.3303  0.1763  1.2080
  830EMI    C1'15760   0.446   1.623   5.162  0.9443 -0.2824  0.0017
  830EMI    H1'15761   0.524   1.617   5.088 -0.2649  2.3834 -1.2005
  830EMI    H1'15762   0.483   1.593   5.256 -0.1013 -0.1791  0.1860
  830EMI    H1'15763   0.367   1.553   5.128 -1.3573 -1.4946  0.4094
  830EMI    C1"15764   0.431   2.127   5.208  0.7059 -0.1770 -0.6236
  830EMI    H1"15765   0.335   2.175   5.203  1.1404  1.1497 -2.7059
  830EMI    H1"15766   0.497   2.166   5.130 -0.5376  0.3425 -0.2076
  830EMI    C2"15767   0.485   2.145   5.351 -0.1205  0.3703  0.3192
  830EMI    H2"15768   0.593   2.151   5.362  1.6404 -0.1557 -0.9122
  830EMI    H2"15769   0.454   2.239   5.390  0.0561 -1.8815 -0.1000
  830EMI    H2"15770   0.460   2.063   5.417 -0.8586 -2.7165 -0.0911
  831EMI     N115771   4.756   4.166   5.277 -0.0757  0.0839  0.1401
  831EMI     C215772   4.739   4.110   5.154 -0.6728  0.0258 -0.2022
  831EMI     N315773   4.616   4.130   5.108 -0.1235 -0.2412  0.6249
  831EMI     C415774   4.543   4.184   5.216 -0.0585  0.5258  0.2380
  831EMI     C515775   4.633   4.212   5.311 -0.0032  0.1054 -0.4159
  831EMI     H215776   4.809   4.042   5.115 -0.7264  2.0790 -0.4744
  831EMI     H415777   4.434   4.200   5.216 -2.7122  0.5764  1.9059
  831EMI     H515778   4.619   4.253   5.411  0.6629 -0.4909  0.9122
  831EMI    C1'15779   4.554   4.110   4.979 -0.0485 -0.2745 -0.2295
  831EMI    H1'15780   4.547   4.205   4.934  2.5209 -1.4717  2.9028
  831EMI    H1'15781   4.603   4.039   4.920  1.6852  0.6827 -0.4661
  831EMI    H1'15782   4.456   4.074   4.986  0.0671  2.0421  0.0604
  831EMI    C1"15783   4.871   4.164   5.364  0.5054 -0.6392  0.2020
  831EMI    H1"15784   4.939   4.087   5.334 -0.9268 -2.1198  0.7475
  831EMI    H1"15785   4.849   4.142   5.470 -0.3657  1.8314 -1.5713
  831EMI    C2"15786   4.940   4.299   5.351 -0.2077 -0.0925 -0.2309
  831EMI    H2"15787   5.034   4.299   5.413 -1.9041  0.7272  0.3803
  831EMI    H2"15788   4.964   4.311   5.244 -2.8057 -0.2798  1.7876
  831EMI    H2"15789   4.869   4.383   5.381 -1.6334 -0.4121 -1.5224
  832EMI     N115790   6.335   5.637   4.880 -0.0609  0.3053  0.4473
  832EMI     C215791   6.253   5.607   4.982 -0.3144  0.1742 -0.1462
  832EMI     N315792   6.316   5.525   5.064  0.0077  0.6136  0.2953
  832EMI     C415793   6.441   5.490   5.005 -0.0057 -0.3008  0.6351
  832EMI     C515794   6.455   5.567   4.896 -0.0743 -0.3191  0.1010
  832EMI     H215795   6.158   5.650   5.004  1.7700  1.9175  1.0421
  832EMI     H415796   6.501   5.407   5.033 -0.4422 -0.6029 -1.3004
  832EMI     H515797   6.537   5.563   4.823  1.3516 -1.9278 -0.2739
  832EMI    C1'15798   6.284   5.471   5.193  0.0270  0.0277  0.3626
  832EMI    H1'15799   6.266   5.546   5.269  3.4639 -2.5542 -2.0861
  832EMI    H1'15800   6.195   5.409   5.192  0.5163 -0.2365 -0.1839
  832EMI    H1'15801   6.368   5.418   5.225  0.1822  2.5975  0.0946
  832EMI    C1"15802   6.318   5.733   4.769 -0.1715  0.6051  1.6323
  832EMI    H1"15803   6.356   5.835   4.802  0.7437  3.9607 -0.7587
  832EMI    H1"15804   6.211   5.750   4.747  0.1419  1.6767 -1.1419
  832EMI    C2"15805   6.369   5.686   4.641  0.0955  0.1534 -0.1720
  832EMI    H2"15806   6.478   5.674   4.657 -0.0299  2.7332 -0.9715
  832EMI    H2"15807   6.323   5.600   4.611  0.6574  2.7159 -1.3074
  832EMI    H2"15808   6.361   5.757   4.563  1.3207  1.6091 -1.0245
  833EMI     N115809   3.034   4.387   3.734  0.1756 -0.7265  0.0459
  833EMI     C215810   3.074   4.517   3.721  0.0733  0.1630 -0.3112
  833EMI     N315811   2.985   4.593   3.787  0.4168 -0.3476 -0.2960
  833EMI     C415812   2.896   4.514   3.849  0.4775 -0.4244 -0.3562
  833EMI     C515813   2.921   4.383   3.815 -0.3048 -0.3970 -0.3909
  833EMI     H215814   3.159   4.545   3.658 -2.7779 -0.6719  1.5568
  833EMI     H415815   2.824   4.548   3.925  0.5208 -1.3866  0.2362
  833EMI     H515816   2.861   4.299   3.840 -3.4667  3.3917 -1.8276
  833EMI    C1'15817   2.986   4.743   3.808  0.3463  0.1434  0.7400
  833EMI    H1'15818   2.881   4.772   3.804 -1.0190  2.9639  0.5964
  833EMI    H1'15819   3.045   4.769   3.900 -1.0048  2.4411 -0.1467
  833EMI    H1'15820   3.034   4.790   3.719  1.5077  0.3735 -1.4823
  833EMI    C1"15821   3.084   4.268   3.672  0.1317  0.1579 -0.1879
  833EMI    H1"15822   3.003   4.213   3.629  2.3340 -0.3140  0.4102
  833EMI    H1"15823   3.136   4.212   3.741 -0.0895 -1.2982 -1.5852
  833EMI    C2"15824   3.183   4.304   3.557  0.6375  0.8205  0.6726
  833EMI    H2"15825   3.240   4.211   3.536  0.1283  0.9699 -1.8940
  833EMI    H2"15826   3.124   4.334   3.472  2.3152  1.3016  2.9279
  833EMI    H2"15827   3.250   4.368   3.604  1.9176 -2.9588 -1.3659
  834EMI     N115828   4.253   5.922   0.899 -0.1376 -0.2833  0.5458
  834EMI     C215829   4.264   5.990   1.016 -0.4643 -0.0209  0.1907
  834EMI     N315830   4.176   6.088   1.026  0.4911 -0.0226 -0.0097
  834EMI     C415831   4.114   6.095   0.902 -0.3478  0.3534 -0.0398
  834EMI     C515832   4.166   5.997   0.825 -0.7096 -0.2285 -0.4360
  834EMI     H215833   4.331   5.953   1.095  1.1278  0.0240  0.7789
  834EMI     H415834   4.035   6.170   0.870 -1.8312 -1.3231 -3.2664
  834EMI     H515835   4.139   5.988   0.721  3.1368  0.9132  1.0824
  834EMI    C1'15836   4.157   6.177   1.139  0.0082  0.4504 -0.1411
  834EMI    H1'15837   4.214   6.162   1.222 -2.3606  0.3789  0.7861
  834EMI    H1'15838   4.188   6.270   1.099 -1.3092 -0.2664  0.7529
  834EMI    H1'15839   4.049   6.186   1.170 -2.0302 -0.7492  0.8265
  834EMI    C1"15840   4.340   5.823   0.833  0.0731 -0.1582 -0.1882
  834EMI    H1"15841   4.432   5.865   0.798  0.0364  0.0250 -3.9424
  834EMI    H1"15842   4.282   5.777   0.754  2.4984 -1.8443  2.0068
  834EMI    C2"15843   4.378   5.709   0.934 -0.3359 -0.1136 -0.2668
  834EMI    H2"15844   4.447   5.753   1.007 -4.2711 -1.7274  1.2579
  834EMI    H2"15845   4.290   5.667   0.986 -1.9815  1.0430 -0.6664
  834EMI    H2"15846   4.424   5.627   0.873  2.8408 -3.1763  1.1411
  835EMI     N115847   3.768   2.345   0.843  0.3526 -0.2751  0.6930
  835EMI     C215848   3.691   2.230   0.863 -0.4207 -0.2487  0.6681
  835EMI     N315849   3.605   2.217   0.758 -0.2904 -0.0939 -0.3417
  835EMI     C415850   3.616   2.333   0.681 -0.0002  0.3593 -0.4248
  835EMI     C515851   3.716   2.409   0.729 -0.3128 -0.6669 -0.1202
  835EMI     H215852   3.714   2.158   0.938 -0.4512 -0.0587 -1.1094
  835EMI     H415853   3.557   2.368   0.602  2.1036 -1.5107  0.4238
  835EMI     H515854   3.760   2.496   0.681 -1.4049 -0.0292  0.9735
  835EMI    C1'15855   3.499   2.124   0.737 -0.1860  0.6507 -0.4470
  835EMI    H1'15856   3.481   2.105   0.632 -2.6164 -1.2640 -0.0809
  835EMI    H1'15857   3.525   2.034   0.787  1.6932  0.6378  0.6426
  835EMI    H1'15858   3.414   2.163   0.780  1.3830  1.1038  2.0787
  835EMI    C1"15859   3.883   2.396   0.918  0.4167  0.0033 -0.2816
  835EMI    H1"15860   3.844   2.487   0.961  1.2525 -0.2506 -3.7557
  835EMI    H1"15861   3.965   2.409   0.848  2.3222  0.9652 -0.6329
  835EMI    C2"15862   3.944   2.312   1.029 -0.5248 -0.1014 -0.5704
  835EMI    H2"15863   4.033   2.362   1.076  0.4582  1.9762  2.7477
  835EMI    H2"15864   3.868   2.288   1.106 -0.5304 -0.2979  0.7045
  835EMI    H2"15865   3.977   2.210   0.994 -2.2311  0.1343  0.3389
  836EMI     N115866   3.300   3.079   2.982 -0.4924 -0.2342 -0.1702
  836EMI     C215867   3.327   2.945   2.972 -0.5961  0.4709  0.6218
  836EMI     N315868   3.451   2.916   2.934 -0.4124  0.1804  0.2099
  836EMI     C415869   3.508   3.043   2.932 -0.7225 -0.0786 -0.1958
  836EMI     C515870   3.419   3.137   2.968  0.2221  0.3837  0.2235
  836EMI     H215871   3.253   2.865   2.992  1.4937 -3.2850  1.7120
  836EMI     H415872   3.608   3.068   2.905 -0.2290  0.6827 -2.3540
  836EMI     H515873   3.433   3.242   2.965  0.9281 -1.3007  0.0511
  836EMI    C1'15874   3.521   2.792   2.895 -0.4329  0.0364 -0.9417
  836EMI    H1'15875   3.589   2.829   2.819  0.4372  0.1639  0.0332
  836EMI    H1'15876   3.577   2.745   2.969 -0.4900  2.5962 -1.4852
  836EMI    H1'15877   3.447   2.725   2.862  0.8277  1.4390 -2.7996
  836EMI    C1"15878   3.188   3.148   3.047  0.5168  0.1066  0.2874
  836EMI    H1"15879   3.106   3.139   2.972 -3.9004  0.1573  0.3276
  836EMI    H1"15880   3.212   3.255   3.056 -0.5073 -0.2969  1.5231
  836EMI    C2"15881   3.137   3.106   3.181 -1.2278 -0.6837 -0.0297
  836EMI    H2"15882   3.037   3.144   3.190 -1.2253  0.3311 -3.4239
  836EMI    H2"15883   3.140   2.999   3.188 -3.5101  1.7635 -0.5944
  836EMI    H2"15884   3.206   3.132   3.263  0.1077  1.4059  1.1883
  837EMI     N115885   6.055   1.913   4.431 -0.3090 -0.7962  0.0126
  837EMI     C215886   5.980   1.839   4.514  0.0491  0.3309 -0.2622
  837EMI     N315887   6.060   1.748   4.578  0.3936  0.6642 -0.3216
  837EMI     C415888   6.187   1.763   4.524 -0.7800 -0.2217 -0.6005
  837EMI     C515889   6.180   1.865   4.437 -0.2392  0.2372  0.2096
  837EMI     H215890   5.871   1.835   4.530 -3.5679  1.9838  0.5897
  837EMI     H415891   6.281   1.717   4.536  0.5239 -0.2352  4.1454
  837EMI     H515892   6.270   1.894   4.384  1.2671 -0.2394 -0.9046
  837EMI    C1'15893   6.023   1.644   4.666  0.8394 -0.2843 -0.0019
  837EMI    H1'15894   6.097   1.568   4.656 -0.8818  0.8068 -2.0438
  837EMI    H1'15895   6.028   1.691   4.770 -2.6465  0.9793 -0.1515
  837EMI    H1'15896   5.926   1.597   4.651 -2.3671 -1.8091 -0.1696
  837EMI    C1"15897   6.014   2.023   4.336 -1.1197  0.2212  0.3960
  837EMI    H1"15898   5.906   2.036   4.319  0.7180  1.6244 -1.2366
  837EMI    H1"15899   6.057   2.013   4.234 -0.3703  0.6001 -0.5631
  837EMI    C2"15900   6.064   2.160   4.394 -0.0701 -0.2216  0.2639
  837EMI    H2"15901   6.175   2.154   4.409 -2.8116 -2.1932  2.6428
  837EMI    H2"15902   6.034   2.250   4.337 -0.4140  0.0029 -0.0358
  837EMI    H2"15903   6.040   2.174   4.494  1.8274 -1.2602  0.5081
  838EMI     N115904   1.448   3.226   0.943 -0.1522 -0.0325 -0.1352
  838EMI     C215905   1.410   3.136   1.033  0.3537  0.1839 -0.1079
  838EMI     N315906   1.281   3.147   1.068  0.5464  0.7543 -0.7333
  838EMI     C415907   1.237   3.254   0.990  0.6362  0.8979 -0.0332
  838EMI     C515908   1.342   3.308   0.926  0.1090 -0.2618 -0.0633
  838EMI     H215909   1.481   3.067   1.077  1.4792  0.2475 -0.0855
  838EMI     H415910   1.138   3.287   0.980  0.4680 -0.5268 -0.0512
  838EMI     H515911   1.329   3.394   0.864 -3.0620 -1.3689  0.3862
  838EMI    C1'15912   1.200   3.063   1.155  0.0429 -0.2190 -0.4609
  838EMI    H1'15913   1.236   2.958   1.157 -2.8344  1.8940 -2.6539
  838EMI    H1'15914   1.226   3.093   1.252  3.0887  0.5739 -2.3079
  838EMI    H1'15915   1.090   3.086   1.156 -2.3801  3.1944 -0.9362
  838EMI    C1"15916   1.586   3.243   0.882 -1.0205 -0.5396 -0.3266
  838EMI    H1"15917   1.557   3.302   0.796 -6.1098 -1.3168  0.8054
  838EMI    H1"15918   1.628   3.147   0.856  0.0055 -0.3738  0.9761
  838EMI    C2"15919   1.681   3.317   0.984  0.3922 -0.4343  0.2494
  838EMI    H2"15920   1.688   3.238   1.051  0.8896  0.0970 -1.1608
  838EMI    H2"15921   1.783   3.336   0.949  0.5096  2.0366  2.7208
  838EMI    H2"15922   1.632   3.409   1.020  3.1549 -0.8890  1.2856
  839EMI     N115923   0.498   4.959   1.859 -0.0285  0.0232  0.2948
  839EMI     C215924   0.592   5.054   1.862 -0.4258 -0.8597 -0.2200
  839EMI     N315925   0.612   5.094   1.987  0.0884  0.3395 -0.0408
  839EMI     C415926   0.534   5.015   2.072  0.1457 -0.2649  0.2293
  839EMI     C515927   0.465   4.932   1.993  0.2143  0.1678 -0.2309
  839EMI     H215928   0.641   5.102   1.777  0.0763  0.6071  3.1634
  839EMI     H415929   0.528   5.019   2.179  1.4955 -1.1101 -0.0913
  839EMI     H515930   0.399   4.848   2.026  1.5107 -1.0627  2.7898
  839EMI    C1'15931   0.696   5.205   2.033 -0.8523 -0.0448  0.3338
  839EMI    H1'15932   0.788   5.213   1.975  0.8434 -0.6916 -0.7134
  839EMI    H1'15933   0.648   5.301   2.024  0.3497  1.2897  1.5512
  839EMI    H1'15934   0.716   5.191   2.141  0.3901 -2.0531  0.9395
  839EMI    C1"15935   0.450   4.868   1.745 -0.2447 -0.9236  0.1597
  839EMI    H1"15936   0.480   4.765   1.769  2.2831  1.3458  1.1973
  839EMI    H1"15937   0.502   4.895   1.652  0.0575 -1.0418 -2.4138
  839EMI    C2"15938   0.306   4.879   1.727  0.7651 -0.7370  0.7250
  839EMI    H2"15939   0.270   4.802   1.652  0.4743 -0.3504 -0.5165
  839EMI    H2"15940   0.247   4.841   1.813  2.9200 -0.9647 -2.3736
  839EMI    H2"15941   0.265   4.980   1.709 -1.4179  1.8869 -0.7500
  840EMI     N115942   4.389   3.835   0.438 -0.0231  0.0563 -0.2287
  840EMI     C215943   4.385   3.705   0.477  0.2807 -0.4975 -0.4496
  840EMI     N315944   4.456   3.691   0.586 -0.3920 -0.6412  0.0611
  840EMI     C415945   4.495   3.814   0.632  0.6323 -0.3416  0.7074
  840EMI     C515946   4.455   3.909   0.540  0.4626  0.3050 -0.7564
  840EMI     H215947   4.330   3.628   0.428  1.3694  0.5241  2.0041
  840EMI     H415948   4.542   3.825   0.726  1.1178 -1.2983  2.1694
  840EMI     H515949   4.474   4.019   0.551  2.5676  0.3630  0.7164
  840EMI    C1'15950   4.488   3.565   0.656  0.1522  0.4269  0.2349
  840EMI    H1'15951   4.465   3.492   0.575 -2.1434  0.2970  2.1531
  840EMI    H1'15952   4.592   3.566   0.695 -1.6779  1.6545  1.8271
  840EMI    H1'15953   4.416   3.553   0.735  2.6982  0.0153 -0.7733
  840EMI    C1"15954   4.331   3.893   0.318 -0.2517  0.2633  0.3169
  840EMI    H1"15955   4.230   3.910   0.339 -0.3470 -3.1262 -2.4958
  840EMI    H1"15956   4.350   3.817   0.239  1.1458  0.9176 -0.1482
  840EMI    C2"15957   4.397   4.021   0.287  0.2352  0.0134  0.2869
  840EMI    H2"15958   4.363   4.062   0.188  0.2257  1.9161 -2.1463
  840EMI    H2"15959   4.376   4.099   0.359 -1.0385 -0.2721 -1.0615
  840EMI    H2"15960   4.506   4.013   0.275  1.8532 -2.8273 -0.0717
  841EMI     N115961   3.063   0.603   5.702  0.4439  0.3246  0.2027
  841EMI     C215962   3.078   0.734   5.680 -0.1591 -0.0911 -0.1946
  841EMI     N315963   3.064   0.769   5.549  0.5565  0.3035 -0.2058
  841EMI     C415964   3.042   0.649   5.485  0.1049  0.1010  0.0670
  841EMI     C515965   3.043   0.548   5.580 -0.1368  0.0285  0.1502
  841EMI     H215966   3.108   0.803   5.758  1.2015  1.8687 -1.0527
  841EMI     H415967   3.026   0.652   5.382  0.4814  1.6299  0.4774
  841EMI     H515968   3.042   0.445   5.549 -2.6497  1.0573  1.3728
  841EMI    C1'15969   3.063   0.898   5.468 -0.0115 -0.4206  0.6046
  841EMI    H1'15970   3.162   0.913   5.425  0.8681 -0.7785 -0.3586
  841EMI    H1'15971   2.981   0.887   5.389 -0.3709  0.1012 -1.0841
  841EMI    H1'15972   3.033   0.982   5.526 -0.1640 -1.4456  0.5234
  841EMI    C1"15973   3.071   0.529   5.833  0.0870 -0.2333  0.0051
  841EMI    H1"15974   3.047   0.423   5.821 -5.4465  0.0491  0.1274
  841EMI    H1"15975   2.995   0.568   5.898  3.1525 -1.4802 -0.7313
  841EMI    C2"15976   3.201   0.535   5.917  0.4852  0.7430 -0.2270
  841EMI    H2"15977   3.288   0.534   5.846 -0.1334  1.5379 -2.3722
  841EMI    H2"15978   3.202   0.619   5.988  0.3912 -1.4264  1.3732
  841EMI    H2"15979   3.196   0.443   5.966 -1.1905 -0.4304 -1.0202
  842EMI     N115980   4.524   4.119   0.928  0.1231  0.9874  0.2319
  842EMI     C215981   4.398   4.074   0.937 -0.2488  0.3117 -0.7597
  842EMI     N315982   4.336   4.140   1.028  0.6093  0.3061 -0.0912
  842EMI     C415983   4.421   4.224   1.090 -0.5952  0.0809  0.1329
  842EMI     C515984   4.537   4.215   1.032 -0.2354  0.0253  0.0426
  842EMI     H215985   4.364   3.997   0.875  0.3602  2.9217  0.1446
  842EMI     H415986   4.402   4.294   1.170 -0.5758 -1.4842  2.2445
  842EMI     H515987   4.620   4.278   1.065  0.5350  1.6746 -0.1224
  842EMI    C1'15988   4.193   4.128   1.055 -0.9096 -0.8103  0.4943
  842EMI    H1'15989   4.178   4.031   1.097  2.0282 -0.4352 -3.5136
  842EMI    H1'15990   4.165   4.208   1.117  0.2388 -0.7606  0.0431
  842EMI    H1'15991   4.145   4.125   0.963  1.7248  0.4878  1.0685
  842EMI    C1"15992   4.636   4.085   0.832 -0.0176 -0.3413 -0.1779
  842EMI    H1"15993   4.620   3.994   0.780 -1.1822 -0.8346  0.9525
  842EMI    H1"15994   4.726   4.076   0.900 -0.2703 -0.2671  0.8337
  842EMI    C2"15995   4.674   4.206   0.746  0.2475  0.1000 -0.0521
  842EMI    H2"15996   4.739   4.171   0.674 -1.9806  2.3128 -0.9473
  842EMI    H2"15997   4.585   4.247   0.696 -1.2262  0.0772 -1.0145
  842EMI    H2"15998   4.728   4.285   0.806 -0.0032 -0.0614 -1.6482
  843EMI     N115999   4.509   0.120   1.725 -1.0135  0.7153 -0.4161
  843EMI     C216000   4.485   0.114   1.592  0.0998 -0.0186 -0.6159
  843EMI     N316001   4.456  -0.017   1.562 -0.6659  0.4566  0.5884
  843EMI     C416002   4.472  -0.095   1.678  0.3047  0.1988 -0.1819
  843EMI     C516003   4.508  -0.009   1.777  0.3836 -0.1245  0.3518
  843EMI     H216004   4.456   0.197   1.533 -1.9971  1.7628 -0.3405
  843EMI     H416005   4.459  -0.199   1.699 -1.5173 -2.9419 -2.3944
  843EMI     H516006   4.542  -0.037   1.877  1.0961  0.8610 -0.1140
  843EMI    C1'16007   4.411  -0.077   1.435  0.3589 -0.5346  0.2001
  843EMI    H1'16008   4.402  -0.187   1.449  0.5671 -0.1113 -0.9440
  843EMI    H1'16009   4.316  -0.029   1.403  0.4089  0.6968 -0.8824
  843EMI    H1'16010   4.491  -0.049   1.364  0.8594 -1.9399 -3.3961
  843EMI    C1"16011   4.518   0.232   1.818 -0.3957  0.0626  0.8612
  843EMI    H1"16012   4.556   0.196   1.918  0.4144  1.7570  0.8592
  843EMI    H1"16013   4.417   0.270   1.828  1.3867  1.5222 -0.1871
  843EMI    C2"16014   4.611   0.338   1.756 -0.2836 -0.3134 -0.6380
  843EMI    H2"16015   4.559   0.388   1.670 -2.3650  0.6048  1.7484
  843EMI    H2"16016   4.645   0.413   1.836 -0.1745  1.0441  1.7314
  843EMI    H2"16017   4.694   0.283   1.717  0.2933 -1.0694 -0.6743
  844EMI     N116018   0.227   5.516   0.125 -0.0080 -0.1431  0.2053
  844EMI     C216019   0.362   5.489   0.123 -0.2578  0.2080 -0.0345
  844EMI     N316020   0.422   5.581   0.200  0.5239  0.8394 -0.3456
  844EMI     C416021   0.329   5.667   0.245  0.0494 -0.0689  0.3728
  844EMI     C516022   0.208   5.630   0.199  0.2196 -0.2801 -1.0000
  844EMI     H216023   0.406   5.405   0.067 -0.1490 -1.9833 -2.5697
  844EMI     H416024   0.336   5.764   0.297  0.4781 -3.3083  1.1487
  844EMI     H516025   0.111   5.691   0.202 -0.1633 -0.6178  0.7492
  844EMI    C1'16026   0.565   5.609   0.217 -0.7493 -0.0228  0.6455
  844EMI    H1'16027   0.572   5.714   0.248 -2.8913  0.9286  0.2856
  844EMI    H1'16028   0.604   5.547   0.298 -1.6439 -3.3290 -0.3723
  844EMI    H1'16029   0.617   5.582   0.122 -0.7642 -0.1322  0.2443
  844EMI    C1"16030   0.117   5.440   0.057 -0.2934 -0.0920 -0.0990
  844EMI    H1"16031   0.136   5.433  -0.047  0.4722 -2.0140  1.5521
  844EMI    H1"16032   0.026   5.501   0.062  2.4489 -0.6388  2.2442
  844EMI    C2"16033   0.118   5.298   0.117 -0.1668 -0.3027  0.0064
  844EMI    H2"16034   0.056   5.246   0.053  0.0947 -0.2728 -2.0518
  844EMI    H2"16035   0.216   5.261   0.117 -0.3879  2.2560 -2.6921
  844EMI    H2"16036   0.068   5.301   0.211 -1.8109 -1.1249 -0.4083
  845EMI     N116037   5.324   0.527   1.481 -0.0208  0.4723 -0.1414
  845EMI     C216038   5.213   0.505   1.409  0.2297 -0.1539  0.0563
  845EMI     N316039   5.213   0.382   1.361 -0.4406  0.1539  0.4608
  845EMI     C416040   5.338   0.327   1.387 -0.0458 -0.3329 -0.1422
  845EMI     C516041   5.403   0.415   1.468  0.7707 -0.1756  0.2174
  845EMI     H216042   5.127   0.566   1.393  0.5089 -0.5685  1.5453
  845EMI     H416043   5.378   0.230   1.359  1.8005 -0.2803 -0.7469
  845EMI     H516044   5.502   0.399   1.510  1.8625  1.0655  2.3726
  845EMI    C1'16045   5.113   0.311   1.281  0.7263 -1.1659 -0.4227
  845EMI    H1'16046   5.150   0.210   1.261 -1.9145  1.4837 -0.3562
  845EMI    H1'16047   5.017   0.294   1.336 -2.1461  1.4161  2.4527
  845EMI    H1'16048   5.091   0.357   1.182 -0.8761 -1.7651 -2.6766
  845EMI    C1"16049   5.367   0.652   1.541 -0.2337  0.1926 -0.1153
  845EMI    H1"16050   5.475   0.650   1.554 -3.1583  0.3908 -0.0374
  845EMI    H1"16051   5.337   0.661   1.642  1.1275  0.3714  0.5674
  845EMI    C2"16052   5.337   0.773   1.452  0.1096  0.4637 -0.3100
  845EMI    H2"16053   5.342   0.736   1.353 -1.4609  0.4448  1.9812
  845EMI    H2"16054   5.240   0.805   1.481  1.3199 -0.6826  0.6685
  845EMI    H2"16055   5.411   0.849   1.480 -1.5773 -0.2342  1.4732
  846EMI     N116056   1.771   3.766   2.365 -0.5729 -0.4721  0.2925
  846EMI     C216057   1.654   3.795   2.417  0.4577 -0.1197 -0.2856
  846EMI     N316058   1.658   3.818   2.548  0.2873  0.9308 -0.0182
  846EMI     C416059   1.788   3.820   2.584  0.7057 -0.8879 -0.0792
  846EMI     C516060   1.858   3.802   2.469  0.3687 -0.2484 -0.3293
  846EMI     H216061   1.563   3.766   2.370 -0.3699  0.3678 -1.5311
  846EMI     H416062   1.823   3.846   2.682  1.5527  0.3311  0.4187
  846EMI     H516063   1.962   3.795   2.460 -0.0887  3.2973 -2.0837
  846EMI    C1'16064   1.554   3.859   2.643 -0.3558 -0.6147  0.1110
  846EMI    H1'16065   1.596   3.910   2.730  0.2740 -0.6035  0.6386
  846EMI    H1'16066   1.484   3.927   2.594 -2.5192  1.0098  3.2883
  846EMI    H1'16067   1.511   3.761   2.672  1.2941 -0.0930 -2.9458
  846EMI    C1"16068   1.805   3.737   2.230  1.3527  0.9103  0.7328
  846EMI    H1"16069   1.904   3.770   2.196 -1.3312  0.6049 -0.4935
  846EMI    H1"16070   1.722   3.776   2.175 -1.6858 -1.6189  0.6640
  846EMI    C2"16071   1.823   3.580   2.210 -0.1538  0.6853  0.7575
  846EMI    H2"16072   1.904   3.547   2.280 -0.0671 -0.8338  3.2656
  846EMI    H2"16073   1.733   3.520   2.245 -1.0778 -0.1830  0.9735
  846EMI    H2"16074   1.850   3.544   2.115  1.0428  1.3201  1.2882
  847EMI     N116075   3.686   1.214   0.392  0.3934  0.2431  0.0258
  847EMI     C216076   3.801   1.246   0.330  0.3780 -1.0738 -0.1674
  847EMI     N316077   3.883   1.143   0.333 -0.4853 -0.6154 -0.0624
  847EMI     C416078   3.819   1.039   0.394 -0.1205  0.0147  0.4951
  847EMI     C516079   3.696   1.081   0.431  0.4364  0.2312  0.0628
  847EMI     H216080   3.832   1.347   0.301 -0.4535 -0.0711  1.0061
  847EMI     H416081   3.863   0.938   0.410 -0.8113  0.0893 -0.6735
  847EMI     H516082   3.625   1.026   0.495  0.3518 -0.0356  2.1278
  847EMI    C1'16083   4.024   1.137   0.284  0.2232 -0.1330 -0.2286
  847EMI    H1'16084   4.031   1.218   0.210 -2.3599 -1.2347 -2.2312
  847EMI    H1'16085   4.098   1.159   0.363  0.1767 -1.8555 -0.7397
  847EMI    H1'16086   4.044   1.039   0.241  0.2023  4.3459 -0.8258
  847EMI    C1"16087   3.582   1.310   0.441 -0.3187  0.3481  0.0928
  847EMI    H1"16088   3.620   1.411   0.431  2.1997  0.9531 -2.4595
  847EMI    H1"16089   3.562   1.285   0.544 -1.8932 -1.0641 -0.5259
  847EMI    C2"16090   3.462   1.300   0.358  0.3596 -0.2805  0.0420
  847EMI    H2"16091   3.382   1.355   0.409 -1.4196 -0.6551  1.3011
  847EMI    H2"16092   3.486   1.355   0.265  2.8304 -1.8956  0.8269
  847EMI    H2"16093   3.436   1.202   0.326 -0.1106  1.0539 -0.6753
  848EMI     N116094   3.463   0.026   3.137  0.4076  0.3715  0.0389
  848EMI     C216095   3.406   0.146   3.120  0.1855 -0.6000 -0.4662
  848EMI     N316096   3.408   0.214   3.235 -0.2731  0.0097  0.1936
  848EMI     C416097   3.478   0.145   3.326  0.2529  0.1592 -0.2645
  848EMI     C516098   3.507   0.025   3.271  0.1464 -0.3322  0.6145
  848EMI     H216099   3.373   0.193   3.036 -0.7317  2.4345 -0.0467
  848EMI     H416100   3.491   0.172   3.431  1.6735 -0.0483  0.9430
  848EMI     H516101   3.548  -0.070   3.315 -1.0419 -1.1137 -2.3437
  848EMI    C1'16102   3.342   0.338   3.273  0.2275  0.1360  0.1180
  848EMI    H1'16103   3.401   0.418   3.229 -0.9869 -1.3491 -0.4396
  848EMI    H1'16104   3.247   0.345   3.223  0.1955  3.4438  0.5963
  848EMI    H1'16105   3.335   0.350   3.383  2.3279 -0.5429 -1.3197
  848EMI    C1"16106   3.475  -0.089   3.045  0.5146 -0.8182  0.1287
  848EMI    H1"16107   3.431  -0.174   3.095  1.6839  1.1807  2.3900
  848EMI    H1"16108   3.583  -0.095   3.022 -0.1893 -0.1263  0.7629
  848EMI    C2"16109   3.408  -0.063   2.914  0.3211  0.2895 -0.0124
  848EMI    H2"16110   3.423  -0.156   2.861  1.0134 -0.6709  0.0570
  848EMI    H2"16111   3.302  -0.036   2.930  1.4815  2.4129  0.3210
  848EMI    H2"16112   3.455   0.022   2.868 -2.9593  0.2976 -1.1557
  849EMI     N116113   1.665   1.968   5.971 -1.0006 -0.4575 -0.3488
  849EMI     C216114   1.533   1.939   5.999 -0.2190  0.4829 -0.6597
  849EMI     N316115   1.455   1.983   5.899  0.0229 -0.4830 -0.4328
  849EMI     C416116   1.540   2.042   5.811 -0.8871  0.1126 -0.6359
  849EMI     C516117   1.663   2.038   5.858 -0.2932 -0.2938  0.7308
  849EMI     H216118   1.507   1.879   6.083  0.5757 -1.1679  0.7549
  849EMI     H416119   1.511   2.084   5.719 -2.5082 -0.0007  2.9767
  849EMI     H516120   1.742   2.077   5.794 -0.6036 -0.8016 -1.9604
  849EMI    C1'16121   1.313   1.960   5.872  0.5366  0.2673 -0.2215
  849EMI    H1'16122   1.298   1.849   5.872  3.2115  0.1480  0.4240
  849EMI    H1'16123   1.249   2.007   5.945  0.6655 -2.6128  0.8365
  849EMI    H1'16124   1.279   1.990   5.768  1.2807 -0.0298 -0.9935
  849EMI    C1"16125   1.795   1.932   6.046 -0.3463 -0.3690 -0.2300
  849EMI    H1"16126   1.873   1.913   5.973 -0.1189  1.3362  0.6645
  849EMI    H1"16127   1.768   1.846   6.100 -0.3496  1.4275  0.0344
  849EMI    C2"16128   1.844   2.042   6.142  0.4131  0.5313  0.1230
  849EMI    H2"16129   1.930   2.015   6.205  1.2047  0.7172  0.3184
  849EMI    H2"16130   1.879   2.128   6.081 -0.5198  0.1270 -1.6271
  849EMI    H2"16131   1.752   2.071   6.195  1.8866 -0.3873  1.5802
  850EMI     N116132   5.154   4.121   1.350 -0.3640  0.3764 -1.1720
  850EMI     C216133   5.243   4.017   1.343  0.6900 -0.1426 -0.0845
  850EMI     N316134   5.188   3.900   1.396  0.5608  0.1797  0.2399
  850EMI     C416135   5.060   3.933   1.431 -0.4394  0.3362  0.5658
  850EMI     C516136   5.043   4.066   1.416  0.0636 -0.3256 -0.4178
  850EMI     H216137   5.345   4.032   1.300  2.8698  1.3894  1.9830
  850EMI     H416138   4.986   3.862   1.486 -2.8482 -0.4278  0.1139
  850EMI     H516139   4.956   4.123   1.445 -0.0286 -2.1978  2.5357
  850EMI    C1'16140   5.249   3.763   1.424 -1.0568  0.0590 -0.1847
  850EMI    H1'16141   5.189   3.693   1.371 -0.8479  1.0423  3.2985
  850EMI    H1'16142   5.346   3.750   1.385  1.0556 -2.2524  0.3910
  850EMI    H1'16143   5.251   3.736   1.527  2.3574 -1.3652  0.5754
  850EMI    C1"16144   5.158   4.261   1.311 -0.1422  0.6593  0.1733
  850EMI    H1"16145   5.219   4.322   1.384  0.5330 -2.3716 -1.6074
  850EMI    H1"16146   5.053   4.297   1.307 -0.2040 -2.4826 -0.2864
  850EMI    C2"16147   5.204   4.280   1.169  0.2004  0.2480  1.4134
  850EMI    H2"16148   5.136   4.230   1.105 -0.1876  0.1991  0.7776
  850EMI    H2"16149   5.220   4.389   1.161  0.9603  0.7355 -1.1422
  850EMI    H2"16150   5.302   4.232   1.166  0.9057 -0.6970  3.7074
  851EMI     N116151   1.165   2.236   1.268 -0.0364 -0.0116  0.0376
  851EMI     C216152   1.163   2.104   1.259 -0.3195  0.9002 -0.1226
  851EMI     N316153   1.123   2.051   1.376  0.3981  0.0115  0.6969
  851EMI     C416154   1.083   2.151   1.454 -0.0519 -0.0780  0.4774
  851EMI     C516155   1.114   2.266   1.393 -0.3412  0.3879 -0.2685
  851EMI     H216156   1.185   2.041   1.178 -1.0826 -1.5787  1.1085
  851EMI     H416157   1.027   2.143   1.543  2.1481  0.4901 -0.9318
  851EMI     H516158   1.091   2.366   1.433 -0.7108  1.3419  1.9416
  851EMI    C1'16159   1.112   1.910   1.418 -0.1715 -0.6732  0.5415
  851EMI    H1'16160   1.120   1.842   1.331  0.7161 -2.0886 -0.5428
  851EMI    H1'16161   1.200   1.891   1.476  2.6605  1.7026  0.5187
  851EMI    H1'16162   1.024   1.891   1.485 -1.2161  2.6768  1.1132
  851EMI    C1"16163   1.208   2.341   1.180 -0.5369  0.1150 -0.1699
  851EMI    H1"16164   1.165   2.432   1.224  2.5941 -2.3116 -2.5024
  851EMI    H1"16165   1.178   2.324   1.073  2.7486 -1.8727 -0.7751
  851EMI    C2"16166   1.359   2.353   1.188 -0.3385  0.2730 -0.3801
  851EMI    H2"16167   1.389   2.398   1.278 -1.2398 -1.8269 -0.2487
  851EMI    H2"16168   1.408   2.259   1.167 -0.0097  1.9913 -0.8761
  851EMI    H2"16169   1.391   2.419   1.109 -0.6208  1.5505  0.4235
  852EMI     N116170   3.444   4.065   4.417 -0.0961  0.5058  0.4075
  852EMI     C216171   3.562   4.045   4.349 -0.2787  0.0826 -0.2388
  852EMI     N316172   3.649   4.136   4.398 -0.1008  0.5698 -0.8444
  852EMI     C416173   3.589   4.210   4.498  0.1260  0.1717 -1.1057
  852EMI     C516174   3.462   4.170   4.503  0.1244  0.4684 -1.1509
  852EMI     H216175   3.576   3.964   4.274  1.7849  2.1215  1.0270
  852EMI     H416176   3.631   4.277   4.562 -0.0436 -1.8126 -1.0304
  852EMI     H516177   3.396   4.202   4.577  0.8763  1.4763 -1.1788
  852EMI    C1'16178   3.779   4.161   4.346 -0.2441 -0.6945  0.0674
  852EMI    H1'16179   3.801   4.268   4.360  0.3908  1.1762 -1.5154
  852EMI    H1'16180   3.850   4.100   4.406 -1.2655  1.1002  0.2033
  852EMI    H1'16181   3.786   4.139   4.241 -1.4122  0.1919 -0.6148
  852EMI    C1"16182   3.324   3.980   4.423 -0.0638  0.4222  0.0157
  852EMI    H1"16183   3.269   3.996   4.520 -0.5216  0.2860 -0.2041
  852EMI    H1"16184   3.333   3.871   4.401 -1.3197 -0.0958 -3.1501
  852EMI    C2"16185   3.218   4.040   4.326  0.3667 -0.1007  0.5197
  852EMI    H2"16186   3.257   4.040   4.226 -0.9502  2.8971 -0.0200
  852EMI    H2"16187   3.131   3.976   4.331 -3.3011 -2.2702  2.7473
  852EMI    H2"16188   3.191   4.135   4.371  0.0409  0.4469  0.3033
  853EMI     N116189   4.733   6.337   5.363 -0.1316  0.3355 -0.3545
  853EMI     C216190   4.775   6.215   5.402  0.2154 -0.5865  0.2363
  853EMI     N316191   4.902   6.192   5.357  0.5584 -0.0133  0.2723
  853EMI     C416192   4.934   6.293   5.278 -0.3899 -0.9040  0.3212
  853EMI     C516193   4.838   6.385   5.284 -0.7982 -0.5495 -0.9122
  853EMI     H216194   4.724   6.148   5.469 -1.2453  2.3824 -1.8009
  853EMI     H416195   5.025   6.287   5.218  0.7141 -0.5395 -0.3022
  853EMI     H516196   4.831   6.476   5.221 -0.5622  0.1226 -0.3520
  853EMI    C1'16197   4.983   6.079   5.369 -0.0337 -0.3882  0.5539
  853EMI    H1'16198   4.959   6.006   5.453  0.4125 -0.8412 -2.8813
  853EMI    H1'16199   4.966   6.015   5.281  3.0246 -1.2001 -1.2925
  853EMI    H1'16200   5.092   6.114   5.375 -0.3283 -0.0932  3.3068
  853EMI    C1"16201   4.598   6.396   5.370 -0.2705  0.2987  1.1926
  853EMI    H1"16202   4.532   6.353   5.292 -0.6741  1.4745 -1.0559
  853EMI    H1"16203   4.599   6.504   5.347 -2.5648  1.5035 -0.9690
  853EMI    C2"16204   4.528   6.366   5.500 -0.6038  0.4050 -0.0038
  853EMI    H2"16205   4.599   6.383   5.581 -0.3673  2.3984  1.2022
  853EMI    H2"16206   4.427   6.413   5.503  1.0842  0.6031 -0.1079
  853EMI    H2"16207   4.512   6.257   5.498  1.7052  1.2731 -2.5036
  854EMI     N116208   4.748   0.986   5.781  0.1086  0.1084  0.1528
  854EMI     C216209   4.734   1.102   5.717 -0.2972  0.6008 -1.1924
  854EMI     N316210   4.725   1.196   5.806 -0.2255  0.0518 -0.4742
  854EMI     C416211   4.738   1.142   5.934  0.2273  1.1550  0.7587
  854EMI     C516212   4.757   1.008   5.916 -0.3639 -0.3527  0.0627
  854EMI     H216213   4.743   1.132   5.615 -0.4038  0.3774 -1.2732
  854EMI     H416214   4.734   1.197   6.021  0.9401 -1.3793 -1.8155
  854EMI     H516215   4.766   0.938   5.996 -1.2559  0.3882 -1.4229
  854EMI    C1'16216   4.730   1.340   5.781  0.0423 -0.7125  0.2226
  854EMI    H1'16217   4.642   1.361   5.719  0.7888 -0.3529  0.4241
  854EMI    H1'16218   4.719   1.399   5.874 -1.3290  3.2410  0.4927
  854EMI    H1'16219   4.826   1.359   5.734 -2.2169 -0.3979  2.2645
  854EMI    C1"16220   4.777   0.857   5.720 -0.1832  0.1585  0.4695
  854EMI    H1"16221   4.738   0.850   5.614 -0.3176  0.4169 -2.6224
  854EMI    H1"16222   4.722   0.785   5.774 -0.0143  2.4804  3.3114
  854EMI    C2"16223   4.925   0.809   5.741  0.4955 -0.6813 -0.1814
  854EMI    H2"16224   4.943   0.706   5.716 -0.7329 -1.2672 -0.0630
  854EMI    H2"16225   4.993   0.884   5.703  1.2753  0.1363  4.2118
  854EMI    H2"16226   4.956   0.803   5.843 -1.0273 -1.6707 -1.2578
  855EMI     N116227   4.896   1.211   0.771 -0.1903  0.2610 -0.0299
  855EMI     C216228   5.010   1.200   0.694 -0.4543  0.5522 -0.1910
  855EMI     N316229   5.029   1.317   0.636 -0.0186 -0.1065 -0.3147
  855EMI     C416230   4.934   1.407   0.688  0.6007  0.5087 -0.9803
  855EMI     C516231   4.850   1.335   0.764  0.0637 -0.3668 -0.0384
  855EMI     H216232   5.067   1.109   0.685  0.8849 -1.4059  0.1145
  855EMI     H416233   4.932   1.512   0.662  0.6842 -0.0689 -0.8809
  855EMI     H516234   4.768   1.376   0.816  1.4696 -0.5965 -0.3053
  855EMI    C1'16235   5.126   1.368   0.541  0.1908  0.2325  0.5120
  855EMI    H1'16236   5.096   1.362   0.435  0.0947 -1.5294  1.1112
  855EMI    H1'16237   5.150   1.475   0.566 -3.7434  1.3669 -3.2891
  855EMI    H1'16238   5.217   1.310   0.556  0.6893  1.3460  4.1831
  855EMI    C1"16239   4.827   1.106   0.844  0.3159  0.1562 -0.2273
  855EMI    H1"16240   4.727   1.090   0.796 -3.1730  3.0439  0.8458
  855EMI    H1"16241   4.792   1.145   0.935  2.0500 -0.9198 -0.9911
  855EMI    C2"16242   4.903   0.974   0.873 -0.0874 -0.9263  0.6337
  855EMI    H2"16243   4.979   0.991   0.956 -1.5674 -0.9611  1.2701
  855EMI    H2"16244   4.833   0.900   0.904 -1.8759  0.4172  0.8081
  855EMI    H2"16245   4.945   0.947   0.776 -1.8546 -0.4314 -2.3562
  856EMI     N116246   2.232   5.765   5.717 -0.0974  0.1112  0.1005
  856EMI     C216247   2.336   5.851   5.738 -0.3072  0.1376  0.6281
  856EMI     N316248   2.453   5.787   5.743 -0.5720 -0.3664 -0.5880
  856EMI     C416249   2.420   5.655   5.729 -0.1623  0.1582 -0.2474
  856EMI     C516250   2.285   5.639   5.711  0.1494  0.0071  0.6323
  856EMI     H216251   2.314   5.960   5.753 -1.5136 -0.0486  0.7477
  856EMI     H416252   2.490   5.573   5.715  0.0350 -2.7969 -0.7661
  856EMI     H516253   2.225   5.544   5.694 -3.1214 -0.9596 -0.0767
  856EMI    C1'16254   2.584   5.852   5.786 -0.2364  0.0282  0.3546
  856EMI    H1'16255   2.654   5.833   5.703 -2.5443  1.5756 -0.0577
  856EMI    H1'16256   2.569   5.957   5.792 -1.8047 -0.0286 -1.4936
  856EMI    H1'16257   2.624   5.798   5.870 -0.1508 -0.3775  0.6944
  856EMI    C1"16258   2.093   5.784   5.681 -0.5169 -0.3538 -0.1820
  856EMI    H1"16259   2.080   5.726   5.589  2.1861  0.2847 -0.1566
  856EMI    H1"16260   2.069   5.888   5.660 -1.6786 -0.7412  1.4810
  856EMI    C2"16261   1.996   5.730   5.785 -0.2755 -0.5820  0.1443
  856EMI    H2"16262   2.029   5.632   5.817  0.8041  3.5412 -0.5556
  856EMI    H2"16263   1.980   5.793   5.874 -0.3385 -0.9250  1.3683
  856EMI    H2"16264   1.901   5.726   5.739  0.1092  0.5637  0.9975
  857EMI     N116265   5.456   1.566   0.280 -0.0265 -0.5760 -0.9604
  857EMI     C216266   5.339   1.537   0.223 -0.1090  0.1493  0.1497
  857EMI     N316267   5.345   1.579   0.094  0.4284  0.3196  0.5153
  857EMI     C416268   5.461   1.646   0.067 -0.0307  0.2827 -0.1748
  857EMI     C516269   5.528   1.641   0.185  0.5497  0.1327 -0.0364
  857EMI     H216270   5.258   1.485   0.260  0.3638  2.9908 -0.7446
  857EMI     H416271   5.501   1.692  -0.023  0.0510  1.7493  0.2450
  857EMI     H516272   5.625   1.695   0.210 -1.6698  3.7199 -0.7629
  857EMI    C1'16273   5.242   1.554  -0.013  0.3533 -0.6117  0.1616
  857EMI    H1'16274   5.144   1.543   0.028 -0.4682  1.7708  0.5611
  857EMI    H1'16275   5.243   1.635  -0.088 -0.6013 -1.2261 -0.4072
  857EMI    H1'16276   5.271   1.456  -0.061  3.0592 -1.7058 -1.4418
  857EMI    C1"16277   5.497   1.545   0.421 -0.0189  0.0904  0.3545
  857EMI    H1"16278   5.604   1.523   0.425  0.7130  0.0768  1.6389
  857EMI    H1"16279   5.450   1.462   0.473 -0.0092 -1.0084 -1.6866
  857EMI    C2"16280   5.471   1.674   0.497 -0.2148  0.3254  0.2329
  857EMI    H2"16281   5.510   1.757   0.438  0.3649 -1.1788  0.6258
  857EMI    H2"16282   5.362   1.688   0.507 -1.8247  0.6978  0.4180
  857EMI    H2"16283   5.519   1.660   0.595 -1.0864  1.9291  1.1695
  858EMI     N116284   5.606   1.767   4.172 -0.8769 -0.0143 -0.5907
  858EMI     C216285   5.469   1.777   4.180  0.6196 -0.5855  0.6775
  858EMI     N316286   5.411   1.750   4.057 -0.1099  0.3339 -0.2809
  858EMI     C416287   5.514   1.723   3.976  0.1361 -0.3923 -0.5758
  858EMI     C516288   5.633   1.739   4.043  0.8519 -0.4896 -0.0775
  858EMI     H216289   5.420   1.802   4.268  0.4376 -2.1912  0.4975
  858EMI     H416290   5.505   1.714   3.874  0.6023  1.7126 -1.4539
  858EMI     H516291   5.727   1.728   3.999  1.6220 -0.1247  0.9861
  858EMI    C1'16292   5.267   1.739   4.021  0.5388 -0.1794 -1.3729
  858EMI    H1'16293   5.201   1.809   4.060  0.9913 -0.3059  2.8851
  858EMI    H1'16294   5.249   1.707   3.917 -2.3525  1.3845 -0.7612
  858EMI    H1'16295   5.248   1.661   4.088 -1.1123 -0.4504 -1.0508
  858EMI    C1"16296   5.710   1.781   4.275  0.1785 -0.0850 -0.4717
  858EMI    H1"16297   5.695   1.885   4.304 -0.6430 -0.8882 -0.2573
  858EMI    H1"16298   5.809   1.776   4.227  1.2611  3.9066 -2.6250
  858EMI    C2"16299   5.676   1.686   4.379 -0.4727  0.3661 -0.4641
  858EMI    H2"16300   5.756   1.688   4.452  2.4358 -0.9669  0.2700
  858EMI    H2"16301   5.586   1.716   4.435 -4.4413  2.5078 -1.2476
  858EMI    H2"16302   5.658   1.589   4.334 -1.2675 -1.5472  0.0151
  859EMI     N116303   5.244   3.669   5.559 -0.1440 -0.7493  0.9174
  859EMI     C216304   5.299   3.547   5.546  0.9000 -0.1881 -0.0534
  859EMI     N316305   5.215   3.455   5.584 -0.1804 -0.0671 -0.3731
  859EMI     C416306   5.098   3.519   5.610 -0.2015  0.5909  0.1195
  859EMI     C516307   5.116   3.652   5.604 -0.1256  0.9152 -0.6008
  859EMI     H216308   5.404   3.537   5.512  1.5387  0.1120  0.8669
  859EMI     H416309   5.002   3.476   5.638 -1.4886  0.1057 -1.1345
  859EMI     H516310   5.034   3.723   5.612  0.3568  1.0570 -2.5075
  859EMI    C1'16311   5.211   3.311   5.583 -0.3976  0.4566 -0.9231
  859EMI    H1'16312   5.170   3.269   5.677 -1.3861  0.0351 -0.3336
  859EMI    H1'16313   5.143   3.277   5.504 -4.3070  1.6903  1.0075
  859EMI    H1'16314   5.317   3.264   5.572  0.0215 -0.0343  0.5473
  859EMI    C1"16315   5.287   3.803   5.522  0.2081 -0.4359 -0.7554
  859EMI    H1"16316   5.203   3.872   5.493  0.9204  1.7449 -0.9897
  859EMI    H1"16317   5.348   3.797   5.431 -1.1705  0.7460 -0.2984
  859EMI    C2"16318   5.373   3.871   5.632 -0.1365  0.2983 -0.6396
  859EMI    H2"16319   5.316   3.894   5.724  1.0935 -3.0979  0.1277
  859EMI    H2"16320   5.451   3.801   5.647  0.3539 -2.3955 -1.2117
  859EMI    H2"16321   5.401   3.968   5.602  0.9900 -2.2558  1.4361
  860EMI     N116322   5.819   6.024   1.510  0.5928 -0.9760  0.0107
  860EMI     C216323   5.693   6.046   1.543  0.3150  0.0097 -0.2826
  860EMI     N316324   5.621   5.935   1.517  1.1322  0.4038 -0.3528
  860EMI     C416325   5.701   5.831   1.483  0.2343  0.5456 -0.2849
  860EMI     C516326   5.825   5.888   1.480  0.4129 -0.1313 -0.0153
  860EMI     H216327   5.646   6.142   1.563  0.6265 -2.5633  0.3608
  860EMI     H416328   5.676   5.730   1.460  0.2555 -1.8389 -0.4002
  860EMI     H516329   5.921   5.841   1.456  1.1904 -0.1221 -0.8401
  860EMI    C1'16330   5.475   5.926   1.525 -0.5397  0.4303  0.1446
  860EMI    H1'16331   5.425   6.020   1.507 -0.5321  1.0531  1.1694
  860EMI    H1'16332   5.443   5.863   1.442  0.7296  0.0130 -0.2389
  860EMI    H1'16333   5.436   5.893   1.623 -0.2442  0.3513  0.1881
  860EMI    C1"16334   5.925   6.125   1.479  0.1700  0.0043 -0.5660
  860EMI    H1"16335   5.889   6.189   1.397  2.1278  0.3498 -0.9923
  860EMI    H1"16336   6.011   6.067   1.451 -1.0617  1.3357 -1.1352
  860EMI    C2"16337   5.955   6.208   1.605  0.3892 -0.3897 -0.8608
  860EMI    H2"16338   6.017   6.287   1.584  0.2975 -0.2518 -1.5572
  860EMI    H2"16339   5.865   6.246   1.659  1.3227 -0.5913  2.2149
  860EMI    H2"16340   5.997   6.145   1.683  1.4105  0.7249 -1.2900
  861EMI     N116341   3.437   2.937   1.782 -0.0459  0.3195  0.0565
  861EMI     C216342   3.393   3.059   1.749 -0.5149 -0.5029 -0.5343
  861EMI     N316343   3.495   3.143   1.736 -0.1916  0.4185 -0.4343
  861EMI     C416344   3.606   3.070   1.763 -0.0780  0.3751  0.7445
  861EMI     C516345   3.572   2.939   1.789 -1.0661  0.8362  0.3806
  861EMI     H216346   3.290   3.091   1.739  0.1970 -1.1784 -0.7647
  861EMI     H416347   3.705   3.104   1.774 -3.1168 -0.6160 -1.2954
  861EMI     H516348   3.644   2.863   1.817  1.4083 -0.7766 -1.3407
  861EMI    C1'16349   3.510   3.278   1.696  0.2984 -0.5836 -1.3171
  861EMI    H1'16350   3.571   3.272   1.602  1.0449 -2.9765 -1.1806
  861EMI    H1'16351   3.417   3.327   1.659 -0.1162 -1.5369  1.1453
  861EMI    H1'16352   3.564   3.337   1.771  2.0409 -0.2792  0.9465
  861EMI    C1"16353   3.363   2.811   1.804 -0.0832 -0.0677  0.2858
  861EMI    H1"16354   3.306   2.810   1.895  1.7329  0.9556  0.5952
  861EMI    H1"16355   3.432   2.732   1.807  3.2132  0.6320  3.2195
  861EMI    C2"16356   3.280   2.782   1.680 -0.2873 -1.3753 -0.7659
  861EMI    H2"16357   3.286   2.674   1.666 -2.7112 -1.7265  2.2400
  861EMI    H2"16358   3.176   2.802   1.709 -0.0810 -1.2465 -1.2441
  861EMI    H2"16359   3.318   2.840   1.584 -0.8140  0.5913  0.5468
  862EMI     N116360   5.058   0.897   0.171  0.1886  0.0129  0.1132
  862EMI     C216361   5.064   0.963   0.056  0.2118  0.4348  0.1880
  862EMI     N316362   4.936   0.999   0.024  0.0756 -0.2139  0.0186
  862EMI     C416363   4.850   0.936   0.116 -0.5852  0.8799 -0.5517
  862EMI     C516364   4.925   0.872   0.207 -0.3070  0.5100 -0.0954
  862EMI     H216365   5.160   0.985   0.012 -0.0656  1.5041  0.8967
  862EMI     H416366   4.745   0.939   0.116  1.8138 -1.5408  1.1859
  862EMI     H516367   4.891   0.814   0.288  1.0291 -0.2027 -1.2711
  862EMI    C1'16368   4.884   1.043  -0.109 -0.4216  0.0069  0.0577
  862EMI    H1'16369   4.962   1.073  -0.172 -1.9382  0.8234  0.5557
  862EMI    H1'16370   4.826   0.960  -0.151 -0.2039  1.3113  1.1996
  862EMI    H1'16371   4.834   1.140  -0.085  1.3620  2.7501  0.9028
  862EMI    C1"16372   5.168   0.843   0.253 -0.0304  0.1928 -0.5531
  862EMI    H1"16373   5.243   0.805   0.187 -1.5634  0.6949 -0.7603
  862EMI    H1"16374   5.132   0.762   0.315  0.5203  0.3427  3.0588
  862EMI    C2"16375   5.234   0.957   0.337 -0.5897 -0.4290  0.7214
  862EMI    H2"16376   5.319   0.919   0.390 -1.0379 -2.4123  2.5099
  862EMI    H2"16377   5.266   1.047   0.280 -2.3722 -1.3796 -0.5201
  862EMI    H2"16378   5.159   0.993   0.405 -0.0140  0.3339 -1.5226
  863EMI     N116379   5.950   1.015   2.496  0.2533 -0.7495  0.1485
  863EMI     C216380   5.911   1.028   2.367  0.1302  0.1240  0.5296
  863EMI     N316381   5.815   0.934   2.347 -1.3433  0.3945 -0.1115
  863EMI     C416382   5.804   0.855   2.460  0.2145 -0.2110 -0.4495
  863EMI     C516383   5.885   0.905   2.555  0.2418 -0.6059  0.3431
  863EMI     H216384   5.923   1.114   2.299  0.2368  0.8145 -3.2575
  863EMI     H416385   5.730   0.777   2.471  0.4940  0.6183  0.4998
  863EMI     H516386   5.907   0.867   2.657  2.6688 -0.1841  0.2225
  863EMI    C1'16387   5.722   0.918   2.237 -1.0159  0.2371  0.6894
  863EMI    H1'16388   5.738   0.997   2.171  0.5579  1.1030 -2.5968
  863EMI    H1'16389   5.762   0.842   2.174 -0.5585  1.4633  2.4422
  863EMI    H1'16390   5.618   0.909   2.266  0.2869 -2.3576  0.2466
  863EMI    C1"16391   6.050   1.085   2.575 -0.0329 -0.0998 -0.3486
  863EMI    H1"16392   6.129   1.120   2.509  2.1198  1.0360  2.4426
  863EMI    H1"16393   6.103   1.021   2.647 -1.2916  1.7979 -2.8315
  863EMI    C2"16394   5.971   1.200   2.644  0.6844  0.4018 -0.1785
  863EMI    H2"16395   5.889   1.158   2.699 -0.4194  3.7146  1.2124
  863EMI    H2"16396   6.035   1.254   2.714 -0.5792 -0.3342  0.1854
  863EMI    H2"16397   5.945   1.285   2.577  2.7606  1.7016  0.0498
  864EMI     N116398   5.096   5.893   4.503 -0.3761 -0.1628  0.0879
  864EMI     C216399   5.157   6.008   4.478 -0.3847 -0.2182  0.4056
  864EMI     N316400   5.170   6.082   4.588  0.3209 -0.4201  0.3372
  864EMI     C416401   5.122   6.005   4.688 -0.4264  1.1319  0.5405
  864EMI     C516402   5.076   5.890   4.640 -0.2680 -0.3898  0.1418
  864EMI     H216403   5.197   6.045   4.385 -2.1340 -0.8720 -2.0420
  864EMI     H416404   5.131   6.024   4.797  1.0007 -0.1287 -1.8757
  864EMI     H516405   5.033   5.807   4.685 -0.7966  3.9853  0.4133
  864EMI    C1'16406   5.228   6.212   4.612 -0.2795 -0.2237  0.6138
  864EMI    H1'16407   5.151   6.294   4.619  0.5416  0.3048  1.2337
  864EMI    H1'16408   5.289   6.213   4.703 -0.0922 -2.9962 -1.6672
  864EMI    H1'16409   5.287   6.244   4.527 -0.0792  0.1462 -2.1460
  864EMI    C1"16410   5.071   5.783   4.414  0.1246 -0.2021  0.6953
  864EMI    H1"16411   5.055   5.689   4.473  0.4312  0.4801 -0.4312
  864EMI    H1"16412   5.163   5.777   4.350 -0.1773  0.2341  1.5960
  864EMI    C2"16413   4.952   5.816   4.323 -0.2478  0.6859 -0.1219
  864EMI    H2"16414   4.868   5.844   4.390 -1.2474 -0.4986  1.6764
  864EMI    H2"16415   4.975   5.889   4.244 -1.4611 -1.6271  0.9448
  864EMI    H2"16416   4.921   5.730   4.270  0.9479  1.1741  0.4827
  865EMI     N116417   1.489   5.435   1.007 -0.2731 -0.1635 -0.0762
  865EMI     C216418   1.435   5.539   0.937  0.4199  0.0305  0.6714
  865EMI     N316419   1.501   5.652   0.949  0.8140 -1.1951 -0.6513
  865EMI     C416420   1.617   5.618   1.023 -0.3690 -0.7385  0.5796
  865EMI     C516421   1.604   5.488   1.059 -0.5122  0.2955 -0.0604
  865EMI     H216422   1.344   5.533   0.880 -1.1759  0.3846 -1.4532
  865EMI     H416423   1.702   5.682   1.045 -2.5182 -1.5013 -1.4780
  865EMI     H516424   1.677   5.437   1.118 -1.8309 -0.0765  0.0486
  865EMI    C1'16425   1.476   5.783   0.888 -0.0324  0.0267  1.3894
  865EMI    H1'16426   1.565   5.844   0.876  0.7085  2.5427 -0.4290
  865EMI    H1'16427   1.428   5.760   0.784 -0.0355 -0.9812 -0.9097
  865EMI    H1'16428   1.413   5.837   0.961 -1.7653 -1.7229  1.4005
  865EMI    C1"16429   1.439   5.304   1.044  0.2779  0.2334  0.4945
  865EMI    H1"16430   1.527   5.245   1.064  0.0706 -0.4862  2.8235
  865EMI    H1"16431   1.376   5.264   0.970 -1.6580 -0.6863  2.4329
  865EMI    C2"16432   1.352   5.317   1.169  0.4004 -0.1509 -0.0139
  865EMI    H2"16433   1.321   5.208   1.188  0.2359 -2.5671  0.4980
  865EMI    H2"16434   1.418   5.352   1.243  1.2532  0.4823  0.0455
  865EMI    H2"16435   1.261   5.386   1.153 -1.5761 -1.8553 -1.8997
  866EMI     N116436   1.567   1.510   4.218  0.1623 -0.1995  0.1897
  866EMI     C216437   1.489   1.560   4.121  0.0328  0.9466 -0.2595
  866EMI     N316438   1.366   1.571   4.168 -0.3947 -0.4519 -0.1719
  866EMI     C416439   1.367   1.534   4.302 -0.3069 -0.3260  0.3002
  866EMI     C516440   1.490   1.495   4.331  0.0177  0.2556  0.3678
  866EMI     H216441   1.521   1.593   4.025 -3.2370  1.4802 -2.3333
  866EMI     H416442   1.298   1.566   4.381 -0.2108  3.3303 -2.3444
  866EMI     H516443   1.530   1.462   4.424 -0.5255 -1.6004  0.2739
  866EMI    C1'16444   1.249   1.641   4.113  0.3514 -0.1848  0.2642
  866EMI    H1'16445   1.217   1.587   4.027 -1.3549  2.1834 -2.1382
  866EMI    H1'16446   1.166   1.651   4.176 -0.2229  0.5432 -0.8763
  866EMI    H1'16447   1.281   1.743   4.098 -0.7963 -0.1025  1.8016
  866EMI    C1"16448   1.714   1.474   4.208 -0.2865  0.2156  0.3735
  866EMI    H1"16449   1.745   1.447   4.309  1.1944  1.1837 -0.8783
  866EMI    H1"16450   1.766   1.564   4.166 -0.0658 -0.1167 -0.7876
  866EMI    C2"16451   1.721   1.362   4.105  0.2320 -0.1177 -0.0531
  866EMI    H2"16452   1.820   1.332   4.079  0.1157 -0.3069 -2.1555
  866EMI    H2"16453   1.683   1.271   4.149  0.8093 -0.5672  0.2084
  866EMI    H2"16454   1.666   1.396   4.016  0.3680 -1.1379  1.4447
  867EMI     N116455   3.515   5.109   1.446  0.6661 -0.0256  0.0984
  867EMI     C216456   3.609   5.028   1.502  0.0368  0.1342 -1.1743
  867EMI     N316457   3.686   4.974   1.406  0.2082  0.2518  0.1281
  867EMI     C416458   3.661   5.042   1.293  0.7108  0.0496  0.1377
  867EMI     C516459   3.558   5.122   1.319  0.6211  0.4041 -0.4818
  867EMI     H216460   3.595   4.995   1.606 -2.4914 -5.2329  1.4525
  867EMI     H416461   3.710   5.031   1.191 -2.8336  0.4768 -0.9402
  867EMI     H516462   3.510   5.194   1.254 -1.8881  2.2697  1.0600
  867EMI    C1'16463   3.813   4.893   1.418 -0.6199  0.1594 -0.6842
  867EMI    H1'16464   3.880   4.895   1.326 -0.4098 -0.4398 -0.0922
  867EMI    H1'16465   3.874   4.921   1.508 -0.7557  1.3711  0.9667
  867EMI    H1'16466   3.789   4.793   1.409 -1.1593 -2.1085  1.6751
  867EMI    C1"16467   3.400   5.179   1.506 -0.3542 -0.3821 -0.5865
  867EMI    H1"16468   3.331   5.207   1.431  2.9041 -0.0792 -3.1386
  867EMI    H1"16469   3.442   5.269   1.555  0.3914 -0.4004 -1.0043
  867EMI    C2"16470   3.328   5.102   1.621  0.2916 -0.6385 -0.2226
  867EMI    H2"16471   3.401   5.111   1.706  0.8840  0.1849 -0.5791
  867EMI    H2"16472   3.230   5.149   1.640  1.6015  1.6339  0.6271
  867EMI    H2"16473   3.310   4.996   1.602  0.5461  1.5950  1.4938
  868EMI     N116474   2.759   2.369   3.163  0.4108 -0.0942 -0.3169
  868EMI     C216475   2.865   2.455   3.174 -0.3587 -0.5407 -0.1088
  868EMI     N316476   2.859   2.539   3.065  0.4037 -0.2678 -0.0990
  868EMI     C416477   2.756   2.500   2.986  0.8696 -0.1166 -0.3606
  868EMI     C516478   2.687   2.398   3.050  0.2295 -0.4369  0.6104
  868EMI     H216479   2.943   2.467   3.252  1.4386 -0.4635  1.6020
  868EMI     H416480   2.726   2.543   2.889  0.4246  0.8949  0.3646
  868EMI     H516481   2.602   2.344   3.021  2.1357  2.7473 -0.6470
  868EMI    C1'16482   2.944   2.659   3.039 -0.2538  0.4057 -0.0424
  868EMI    H1'16483   2.996   2.659   2.940  0.8282 -0.2398  0.9481
  868EMI    H1'16484   2.884   2.743   3.048 -0.1689 -1.3904 -2.3882
  868EMI    H1'16485   3.026   2.669   3.111 -0.9878  3.6756  1.1160
  868EMI    C1"16486   2.715   2.273   3.263 -0.4876 -0.8985 -0.4809
  868EMI    H1"16487   2.618   2.288   3.295  2.1462 -0.5133  1.2471
  868EMI    H1"16488   2.778   2.294   3.349  1.1047  3.6786  1.1546
  868EMI    C2"16489   2.738   2.125   3.233 -0.2839  0.6762  0.5901
  868EMI    H2"16490   2.751   2.064   3.321  2.6573 -1.5784 -0.9444
  868EMI    H2"16491   2.650   2.077   3.191  1.0200 -0.2564  1.1416
  868EMI    H2"16492   2.820   2.110   3.173  0.1051 -2.8714 -0.7451
  869EMI     N116493   1.752   3.646   6.237 -0.1636  0.1931 -0.3316
  869EMI     C216494   1.840   3.563   6.304 -0.7780 -0.0191 -0.0744
  869EMI     N316495   1.811   3.432   6.280 -0.0987 -0.7693 -0.5853
  869EMI     C416496   1.710   3.432   6.189  0.3335  0.1198 -0.0858
  869EMI     C516497   1.670   3.554   6.161  0.4085  0.3309 -0.0549
  869EMI     H216498   1.920   3.602   6.375 -0.7988 -0.8294 -0.3799
  869EMI     H416499   1.665   3.344   6.143  1.6788  1.4442 -0.8845
  869EMI     H516500   1.590   3.575   6.091  0.8326  2.7557 -0.4655
  869EMI    C1'16501   1.872   3.313   6.347  0.3046 -0.0073  0.5488
  869EMI    H1'16502   1.887   3.228   6.275  0.0931  1.1013 -1.1704
  869EMI    H1'16503   1.964   3.343   6.383 -1.2872 -1.0563 -0.8298
  869EMI    H1'16504   1.818   3.279   6.437 -0.8713  0.0457  0.7070
  869EMI    C1"16505   1.734   3.795   6.230  0.2115  0.2103 -0.5499
  869EMI    H1"16506   1.727   3.832   6.332 -1.0902 -1.3695 -2.7044
  869EMI    H1"16507   1.645   3.817   6.173 -2.5409  0.9635  1.5176
  869EMI    C2"16508   1.863   3.852   6.175 -0.2575 -1.3645  0.1742
  869EMI    H2"16509   1.866   3.970   6.176 -0.5995  2.5452  1.1425
  869EMI    H2"16510   1.949   3.810   6.231  0.4431 -1.6704 -0.8945
  869EMI    H2"16511   1.862   3.831   6.069 -0.3349  2.8610  2.5446
  870EMI     N116512   3.447   1.114   5.918  0.3865 -0.1384  0.0849
  870EMI     C216513   3.346   1.092   6.009 -0.5036  0.0608 -0.1584
  870EMI     N316514   3.383   1.139   6.125  0.2829 -0.3498  0.3994
  870EMI     C416515   3.511   1.172   6.114  0.1806  0.3651  0.3327
  870EMI     C516516   3.551   1.169   5.985  0.3973  0.4240 -0.0730
  870EMI     H216517   3.252   1.041   5.981 -2.5631 -3.3012 -1.4023
  870EMI     H416518   3.583   1.197   6.197  0.9629  0.8284  0.7355
  870EMI     H516519   3.647   1.205   5.946 -0.8352  0.8694  1.3058
  870EMI    C1'16520   3.300   1.171   6.237  0.4247  0.4727 -0.2811
  870EMI    H1'16521   3.194   1.153   6.222  2.3577 -0.2214 -0.7760
  870EMI    H1'16522   3.328   1.115   6.325 -1.7016  3.0661  0.2263
  870EMI    H1'16523   3.298   1.281   6.243 -0.4664  0.0936 -0.6974
  870EMI    C1"16524   3.450   1.062   5.780 -0.1164 -0.1579  0.1973
  870EMI    H1"16525   3.356   1.030   5.735  0.9586 -1.4049 -0.1454
  870EMI    H1"16526   3.524   0.979   5.786  2.0965 -2.3353  0.5277
  870EMI    C2"16527   3.501   1.164   5.683  0.3269 -0.0830  0.3955
  870EMI    H2"16528   3.456   1.260   5.714  0.3966 -0.1447 -0.1334
  870EMI    H2"16529   3.611   1.174   5.705  1.9025 -0.2781 -0.9587
  870EMI    H2"16530   3.480   1.151   5.581 -0.5723  2.0516  1.6860
  871EMI     N116531   4.989   4.709   5.933 -0.0576 -0.2656  0.3361
  871EMI     C216532   4.950   4.754   5.808  0.1859  0.0009  0.4665
  871EMI     N316533   4.897   4.879   5.819  0.2988  0.8268  0.3052
  871EMI     C416534   4.902   4.912   5.949 -0.5510  0.8086 -0.3754
  871EMI     C516535   4.968   4.814   6.021  0.1356 -0.0126  0.6421
  871EMI     H216536   4.947   4.688   5.720 -0.5702 -1.8930 -3.1372
  871EMI     H416537   4.871   5.006   5.985  0.1009  0.3467 -0.5258
  871EMI     H516538   5.001   4.822   6.124  2.1982  1.3143 -1.2073
  871EMI    C1'16539   4.860   4.969   5.710  0.1016 -0.6217  0.3664
  871EMI    H1'16540   4.885   4.927   5.612  1.5854 -0.6302 -1.0505
  871EMI    H1'16541   4.757   5.003   5.724  0.8706  0.4970  0.6890
  871EMI    H1'16542   4.930   5.053   5.722 -2.5334 -0.5723 -0.8618
  871EMI    C1"16543   5.040   4.580   5.976  0.0467 -0.1896 -0.3760
  871EMI    H1"16544   4.995   4.502   5.905 -1.5901 -1.4051 -0.9722
  871EMI    H1"16545   5.013   4.556   6.079  1.4401 -1.3760 -1.6488
  871EMI    C2"16546   5.194   4.591   5.964  0.4594  0.6653  0.3198
  871EMI    H2"16547   5.234   4.512   6.022  1.1659  0.0807  1.9588
  871EMI    H2"16548   5.237   4.600   5.861  0.8742 -0.0055  0.9793
  871EMI    H2"16549   5.235   4.684   6.015  1.8744 -0.1895 -1.9115
  872EMI     N116550   5.454   4.896   4.339  0.2420  0.1400  0.3289
  872EMI     C216551   5.449   5.033   4.331 -0.0752  1.0022 -0.0272
  872EMI     N316552   5.568   5.078   4.298 -0.2649  0.5357  0.2626
  872EMI     C416553   5.650   4.969   4.301 -0.4505  0.1159 -0.2678
  872EMI     C516554   5.580   4.854   4.323 -1.2779 -0.2438  0.2120
  872EMI     H216555   5.362   5.091   4.336  1.5931  1.2276  2.5606
  872EMI     H416556   5.756   4.971   4.294 -0.8277  0.1016  1.9510
  872EMI     H516557   5.614   4.754   4.337 -0.9164  2.4968  0.7788
  872EMI    C1'16558   5.607   5.209   4.244  0.2856  0.8481 -0.0467
  872EMI    H1'16559   5.518   5.260   4.205  1.4048 -0.3822 -1.3689
  872EMI    H1'16560   5.660   5.274   4.317 -0.2160  1.2233  1.9951
  872EMI    H1'16561   5.661   5.194   4.150  0.6262 -1.3320 -2.0878
  872EMI    C1"16562   5.343   4.797   4.348  0.3675  0.3961  0.8890
  872EMI    H1"16563   5.279   4.807   4.441  0.9026 -0.7370 -0.7150
  872EMI    H1"16564   5.387   4.698   4.341  0.1340 -0.6938 -0.8903
  872EMI    C2"16565   5.257   4.804   4.218 -0.3631 -0.0174  0.3585
  872EMI    H2"16566   5.173   4.737   4.240  1.4935 -0.1739  0.4553
  872EMI    H2"16567   5.224   4.907   4.207  0.3306 -1.0667  0.2325
  872EMI    H2"16568   5.325   4.782   4.135 -2.5819  0.1813  1.2151
  873EMI     N116569   4.752   5.323   3.887  0.5019  0.2952 -0.5538
  873EMI     C216570   4.747   5.276   3.761 -0.3231  0.4258  0.0472
  873EMI     N316571   4.868   5.219   3.729  0.5404 -0.1681  0.7208
  873EMI     C416572   4.951   5.229   3.837  0.0606 -0.1482  0.6084
  873EMI     C516573   4.882   5.304   3.928 -0.1444  0.2010 -0.1765
  873EMI     H216574   4.664   5.279   3.704 -0.3915 -2.2242  1.2614
  873EMI     H416575   5.054   5.198   3.838  0.3736  1.2626 -2.6401
  873EMI     H516576   4.929   5.338   4.022 -1.2026 -2.6060 -0.2179
  873EMI    C1'16577   4.920   5.160   3.609 -0.3297 -0.3322 -0.8399
  873EMI    H1'16578   4.932   5.226   3.529 -1.0082  0.4539 -1.8667
  873EMI    H1'16579   5.013   5.113   3.633 -1.5599  0.9587  0.2439
  873EMI    H1'16580   4.858   5.079   3.580 -1.2955  2.6036  0.0550
  873EMI    C1"16581   4.649   5.383   3.970  0.3702  0.0544  0.4393
  873EMI    H1"16582   4.587   5.438   3.902  1.8435 -0.9697  0.0426
  873EMI    H1"16583   4.681   5.459   4.035 -1.4169 -1.9894 -0.4493
  873EMI    C2"16584   4.561   5.280   4.042  0.1455 -0.2725 -0.6307
  873EMI    H2"16585   4.471   5.335   4.084 -1.0101 -0.0251 -0.0386
  873EMI    H2"16586   4.545   5.205   3.964  2.6095  1.4075  0.1896
  873EMI    H2"16587   4.612   5.240   4.129 -0.9257  1.4225  0.9057
  874EMI     N116588   0.697   4.897   1.033 -0.5985 -0.1135 -1.0059
  874EMI     C216589   0.655   4.804   1.131 -0.1671  0.0257  0.2107
  874EMI     N316590   0.677   4.855   1.252  0.2167 -0.2795 -0.0984
  874EMI     C416591   0.713   4.986   1.232  0.5409  0.4577  0.2063
  874EMI     C516592   0.735   5.011   1.101 -0.3322 -0.5168 -0.6853
  874EMI     H216593   0.611   4.703   1.125 -0.9989 -1.4817 -0.8335
  874EMI     H416594   0.724   5.068   1.304 -1.3767  2.6396  0.2712
  874EMI     H516595   0.761   5.101   1.049 -0.7827 -1.8099 -0.5182
  874EMI    C1'16596   0.651   4.796   1.383  0.6327  0.0803 -0.7730
  874EMI    H1'16597   0.580   4.716   1.373 -2.4483 -2.4329 -1.2674
  874EMI    H1'16598   0.749   4.765   1.429  1.1122 -0.2742 -1.1190
  874EMI    H1'16599   0.601   4.873   1.433  1.0980 -0.7691 -1.5176
  874EMI    C1"16600   0.685   4.886   0.887 -0.1933  0.1474  1.2425
  874EMI    H1"16601   0.747   4.966   0.833  1.8589 -0.4376  1.2910
  874EMI    H1"16602   0.579   4.887   0.859  2.2796  0.3874 -1.5668
  874EMI    C2"16603   0.734   4.747   0.843  0.4679  0.1858  0.1950
  874EMI    H2"16604   0.740   4.741   0.731  2.1190 -0.1689 -0.7098
  874EMI    H2"16605   0.840   4.736   0.882  1.1365  0.9358  1.1331
  874EMI    H2"16606   0.660   4.676   0.877 -1.3806  0.8359 -1.2087
  875EMI     N116607   1.814   5.342   0.716  0.0118  0.3475  0.1927
  875EMI     C216608   1.853   5.471   0.686  0.5793  0.1321  0.2735
  875EMI     N316609   1.745   5.549   0.678  0.3042  0.2250 -0.1658
  875EMI     C416610   1.636   5.470   0.706  0.3623  1.0940 -0.2481
  875EMI     C516611   1.678   5.345   0.727 -0.8123 -0.9741  0.2685
  875EMI     H216612   1.950   5.513   0.670 -0.1668 -0.9977 -1.2430
  875EMI     H416613   1.527   5.492   0.701  0.1440 -2.8711  1.0103
  875EMI     H516614   1.614   5.257   0.740  2.0634  2.4609 -0.8316
  875EMI    C1'16615   1.727   5.686   0.633 -0.2481  0.2505  0.0252
  875EMI    H1'16616   1.810   5.745   0.679 -0.7011  0.1368  1.4364
  875EMI    H1'16617   1.743   5.694   0.527  1.7256 -0.5969  0.4935
  875EMI    H1'16618   1.628   5.733   0.675  1.6478 -0.6639 -0.7291
  875EMI    C1"16619   1.901   5.224   0.744  0.2599 -0.5978 -0.9694
  875EMI    H1"16620   1.849   5.166   0.820  0.7152 -0.4343  0.9581
  875EMI    H1"16621   1.997   5.243   0.793 -1.4535  1.1527 -0.4981
  875EMI    C2"16622   1.924   5.144   0.620 -0.5206 -0.1488  0.5610
  875EMI    H2"16623   2.024   5.098   0.624  1.0448  1.0663 -0.2417
  875EMI    H2"16624   1.839   5.074   0.606 -2.2169  1.5181 -1.0909
  875EMI    H2"16625   1.912   5.203   0.531  0.3810 -0.9220 -0.4852
  876EMI     N116626   3.142   3.345   0.973  0.1137 -0.4198  0.0954
  876EMI     C216627   3.220   3.299   1.071  1.0541 -0.6224  0.0791
  876EMI     N316628   3.345   3.335   1.055  0.7132 -0.1899 -0.1519
  876EMI     C416629   3.347   3.414   0.939 -0.5529 -0.9715  0.3095
  876EMI     C516630   3.220   3.420   0.888 -0.3966 -0.8951  0.1319
  876EMI     H216631   3.191   3.229   1.143  0.7184  1.1747  1.5685
  876EMI     H416632   3.441   3.446   0.898  0.7606  1.1763  1.1628
  876EMI     H516633   3.187   3.463   0.803 -2.5428 -3.6181  3.0908
  876EMI    C1'16634   3.467   3.294   1.131  0.7557  0.3020  0.2410
  876EMI    H1'16635   3.434   3.299   1.234 -1.5301  1.7942 -0.7336
  876EMI    H1'16636   3.485   3.191   1.095  0.5208 -1.2151  1.4843
  876EMI    H1'16637   3.542   3.363   1.105 -2.1566  0.1593 -1.5017
  876EMI    C1"16638   2.997   3.330   0.957  0.7889  0.2750 -0.0402
  876EMI    H1"16639   2.966   3.423   0.899  0.4777  1.5384 -0.9634
  876EMI    H1"16640   2.950   3.329   1.055  0.1778 -0.6464  1.2759
  876EMI    C2"16641   2.964   3.205   0.874  0.7404 -0.1963 -0.1773
  876EMI    H2"16642   3.016   3.208   0.787 -2.1499 -1.8600  1.5593
  876EMI    H2"16643   2.995   3.120   0.939 -0.6440 -0.5135 -1.1130
  876EMI    H2"16644   2.855   3.207   0.849  0.4957 -0.1802 -0.0636
  877EMI     N116645   2.813   0.414   3.820  0.1064  0.4028 -0.7759
  877EMI     C216646   2.833   0.493   3.717 -0.1111  0.2623  0.1617
  877EMI     N316647   2.940   0.448   3.645  0.5716  0.0519  0.1120
  877EMI     C416648   2.972   0.328   3.701  1.1206  0.2700 -0.3791
  877EMI     C516649   2.899   0.304   3.810 -0.5076 -0.3966 -0.0404
  877EMI     H216650   2.776   0.579   3.696 -0.9097  0.6795  1.4246
  877EMI     H416651   3.053   0.264   3.662 -0.0057 -3.7185 -0.2842
  877EMI     H516652   2.917   0.214   3.871 -1.4995  2.7304 -4.2098
  877EMI    C1'16653   3.010   0.514   3.535  0.0396  0.2269 -0.1953
  877EMI    H1'16654   3.034   0.620   3.567 -1.3253 -0.6133 -2.3124
  877EMI    H1'16655   3.097   0.463   3.523 -0.0820  3.6306  1.0543
  877EMI    H1'16656   2.943   0.508   3.447 -0.8407 -1.9391 -0.2714
  877EMI    C1"16657   2.702   0.421   3.917  0.2919  0.6236 -0.2723
  877EMI    H1"16658   2.687   0.531   3.939  1.3183  1.3088 -2.8018
  877EMI    H1"16659   2.724   0.383   4.017 -0.1461 -1.2622 -0.4804
  877EMI    C2"16660   2.575   0.346   3.871 -0.0605 -0.3755 -0.2567
  877EMI    H2"16661   2.482   0.383   3.918  1.8335  1.2233  0.5067
  877EMI    H2"16662   2.551   0.369   3.768  2.9791  1.3376  0.6249
  877EMI    H2"16663   2.589   0.239   3.891  1.6593  1.3587 -2.3689
  878EMI     N116664   0.959   3.641   5.392  0.5626 -0.0410  0.2914
  878EMI     C216665   0.949   3.517   5.345  0.3331  0.0101  0.3110
  878EMI     N316666   0.860   3.513   5.247  0.0749  0.2059 -0.0905
  878EMI     C416667   0.804   3.637   5.234 -0.3579  0.5523 -0.1842
  878EMI     C516668   0.865   3.718   5.322 -0.1612 -0.1198 -0.0119
  878EMI     H216669   0.999   3.426   5.379 -0.4382 -1.8505  1.4599
  878EMI     H416670   0.728   3.668   5.162 -1.1787 -1.0654 -3.6309
  878EMI     H516671   0.854   3.825   5.337 -1.0437  0.0317  0.0065
  878EMI    C1'16672   0.818   3.403   5.157  0.0205  0.5099  0.1261
  878EMI    H1'16673   0.814   3.448   5.052 -0.0074 -2.5456 -0.5958
  878EMI    H1'16674   0.894   3.323   5.185 -0.5530 -1.5439  1.3791
  878EMI    H1'16675   0.720   3.363   5.187 -1.1849  1.2161  0.5172
  878EMI    C1"16676   1.044   3.703   5.499  0.5511  0.8570 -0.3530
  878EMI    H1"16677   1.053   3.811   5.479 -0.6255  2.1963 -4.0762
  878EMI    H1"16678   1.147   3.666   5.504  2.0879  2.0280  2.2253
  878EMI    C2"16679   0.978   3.687   5.640  0.6044  0.4429 -0.5025
  878EMI    H2"16680   0.886   3.741   5.638 -0.7308 -1.6528 -0.3105
  878EMI    H2"16681   0.934   3.584   5.649  2.0214 -1.6041  0.2806
  878EMI    H2"16682   1.047   3.705   5.722 -1.6818 -1.0540  1.5566
  879EMI     N116683   4.233   1.293   0.824 -0.3326  0.2805 -0.1313
  879EMI     C216684   4.211   1.402   0.754  0.6909  0.1153  0.3099
  879EMI     N316685   4.278   1.504   0.812  0.2066  0.4092  0.3906
  879EMI     C416686   4.342   1.453   0.918 -1.4047  0.4693 -0.1250
  879EMI     C516687   4.317   1.325   0.929  0.1641  0.1457  0.5449
  879EMI     H216688   4.150   1.411   0.660 -1.1640  1.2293  0.2905
  879EMI     H416689   4.399   1.510   0.993 -2.4816  1.6293  1.4787
  879EMI     H516690   4.348   1.259   1.013 -1.2839 -0.7821 -0.2395
  879EMI    C1'16691   4.290   1.643   0.775  0.6101 -0.0242  0.4722
  879EMI    H1'16692   4.250   1.707   0.851  0.4527 -2.9080  0.9804
  879EMI    H1'16693   4.391   1.666   0.765  2.3133 -1.2009  1.9675
  879EMI    H1'16694   4.242   1.652   0.677  1.8737 -1.1260  0.7729
  879EMI    C1"16695   4.177   1.155   0.806 -0.3315  0.0821  0.0869
  879EMI    H1"16696   4.125   1.123   0.905 -0.0360 -0.5708 -0.0615
  879EMI    H1"16697   4.258   1.082   0.796 -1.2887 -0.5161  0.8780
  879EMI    C2"16698   4.067   1.158   0.702  0.2376 -0.1194 -0.2449
  879EMI    H2"16699   4.010   1.061   0.714 -2.0301 -0.4042  2.8660
  879EMI    H2"16700   3.995   1.239   0.721  1.9335  3.2563 -1.4121
  879EMI    H2"16701   4.099   1.155   0.599 -1.8107  0.7167 -0.7117
  880EMI     N116702   2.353   5.573   0.918 -1.1502 -0.3344 -0.1194
  880EMI     C216703   2.487   5.544   0.897  0.0659 -0.6185  0.3522
  880EMI     N316704   2.559   5.658   0.902  0.3144  0.2815 -0.2386
  880EMI     C416705   2.476   5.761   0.934 -0.1615  0.0546 -0.7375
  880EMI     C516706   2.354   5.709   0.943 -0.3541  0.3790  0.0861
  880EMI     H216707   2.532   5.448   0.885  2.3330  0.4305  0.8495
  880EMI     H416708   2.495   5.867   0.950 -3.1619 -0.8525 -1.3289
  880EMI     H516709   2.263   5.759   0.972 -0.9126 -0.2284  0.2255
  880EMI    C1'16710   2.705   5.677   0.895 -0.0545  0.2547 -0.0606
  880EMI    H1'16711   2.726   5.751   0.814  0.2238  1.0750  1.4336
  880EMI    H1'16712   2.749   5.714   0.983 -1.4080  2.9700 -0.8667
  880EMI    H1'16713   2.750   5.582   0.872  0.3567 -1.9428  1.1295
  880EMI    C1"16714   2.241   5.478   0.941 -1.6004  1.0964 -0.7313
  880EMI    H1"16715   2.282   5.381   0.915  1.2101 -0.4255 -0.1260
  880EMI    H1"16716   2.157   5.504   0.875 -2.2828 -0.4042 -1.3602
  880EMI    C2"16717   2.190   5.464   1.080 -0.6067 -0.7358 -0.3946
  880EMI    H2"16718   2.275   5.437   1.141 -0.8585  1.6664  2.4491
  880EMI    H2"16719   2.150   5.560   1.109  0.3249 -0.0520 -1.2179
  880EMI    H2"16720   2.113   5.379   1.078  3.4390  0.1402 -0.0605
  881EMI     N116721   5.330   0.229   4.053 -0.7111 -0.0901 -0.2474
  881EMI     C216722   5.252   0.228   4.159  0.2352 -0.1483 -0.4784
  881EMI     N316723   5.177   0.121   4.160  0.1455 -0.2265 -0.6234
  881EMI     C416724   5.201   0.049   4.042 -0.3929  0.3110  0.7073
  881EMI     C516725   5.300   0.117   3.980  0.3113 -0.4661  0.4220
  881EMI     H216726   5.254   0.305   4.237  0.7456  0.6286 -0.8479
  881EMI     H416727   5.131  -0.033   4.003 -1.7411 -0.5307 -1.1212
  881EMI     H516728   5.340   0.096   3.880  3.5031 -0.6766  1.4745
  881EMI    C1'16729   5.069   0.076   4.252  0.4607 -0.5017 -0.6797
  881EMI    H1'16730   4.989   0.150   4.254  0.6266  2.0122  3.1431
  881EMI    H1'16731   5.031  -0.023   4.222 -0.3959  2.5027 -1.1898
  881EMI    H1'16732   5.114   0.076   4.349  0.2794  0.3263  2.2788
  881EMI    C1"16733   5.431   0.329   4.012 -0.4439  0.0924 -0.7852
  881EMI    H1"16734   5.380   0.422   3.991  0.4174  0.8857 -1.2342
  881EMI    H1"16735   5.473   0.309   3.920  1.7840  1.4173  1.3973
  881EMI    C2"16736   5.536   0.356   4.114  0.1935  0.1156 -0.1746
  881EMI    H2"16737   5.583   0.260   4.127 -1.3415 -1.0244  0.7768
  881EMI    H2"16738   5.602   0.433   4.077  0.7324  0.7775 -1.8068
  881EMI    H2"16739   5.493   0.394   4.206 -1.0166 -1.5318 -1.2412
  882EMI     N116740   3.891   4.602   0.436  0.2808 -0.0238 -0.3840
  882EMI     C216741   4.015   4.638   0.390 -0.1054 -0.9295 -0.4729
  882EMI     N316742   4.000   4.721   0.289  0.7918  0.3917  0.5559
  882EMI     C416743   3.867   4.733   0.260 -1.0221  0.2746  0.4455
  882EMI     C516744   3.802   4.653   0.347  0.5129 -0.1436  0.1205
  882EMI     H216745   4.112   4.622   0.437  1.5627  1.0770  1.1145
  882EMI     H416746   3.817   4.775   0.173 -2.5326 -0.9583  1.1645
  882EMI     H516747   3.694   4.640   0.341 -0.6576 -3.1243  0.3128
  882EMI    C1'16748   4.092   4.788   0.205  0.2990 -0.0225  0.6517
  882EMI    H1'16749   4.148   4.715   0.148 -0.5205  0.3931  1.2789
  882EMI    H1'16750   4.043   4.866   0.140 -1.2414  2.2193 -1.6319
  882EMI    H1'16751   4.169   4.834   0.263  0.3634 -1.9320 -1.8927
  882EMI    C1"16752   3.859   4.518   0.551 -0.0738 -0.6334  0.6718
  882EMI    H1"16753   3.942   4.443   0.540  0.3618 -0.1562  0.3013
  882EMI    H1"16754   3.770   4.459   0.534 -0.1867 -0.9339 -1.5943
  882EMI    C2"16755   3.857   4.580   0.695  0.2131  0.0808 -0.0396
  882EMI    H2"16756   3.771   4.643   0.704  3.0357 -0.3239 -2.1891
  882EMI    H2"16757   3.859   4.492   0.762  1.6677 -0.8006 -0.3502
  882EMI    H2"16758   3.946   4.640   0.705 -0.2876 -1.3510 -2.2182
  883EMI     N116759   3.571   0.428   0.978 -0.0894  0.2874  0.0874
  883EMI     C216760   3.544   0.309   1.036  0.0206 -0.0922 -0.3841
  883EMI     N316761   3.467   0.232   0.959  0.1153 -0.6590 -0.6133
  883EMI     C416762   3.444   0.308   0.845 -0.6829 -0.2577  0.6194
  883EMI     C516763   3.511   0.426   0.852  0.5668  0.0843 -0.4510
  883EMI     H216764   3.586   0.285   1.135 -0.4445  1.0102  1.5040
  883EMI     H416765   3.377   0.285   0.765  2.2173 -0.5909  1.5374
  883EMI     H516766   3.507   0.503   0.774 -0.3504 -1.5363  1.0308
  883EMI    C1'16767   3.401   0.104   0.971  0.5293 -0.1367 -0.5735
  883EMI    H1'16768   3.296   0.112   1.013 -2.9856 -1.5945  0.5193
  883EMI    H1'16769   3.391   0.057   0.873  0.5126 -0.0926 -0.5864
  883EMI    H1'16770   3.464   0.049   1.028 -0.3066 -0.2405 -2.2793
  883EMI    C1"16771   3.635   0.551   1.032 -0.5662 -0.3747 -0.1390
  883EMI    H1"16772   3.582   0.581   1.120 -0.8331 -0.6114 -2.4095
  883EMI    H1"16773   3.634   0.631   0.963 -1.9534  0.0012  2.0577
  883EMI    C2"16774   3.780   0.521   1.066 -0.0625  0.2573 -0.1593
  883EMI    H2"16775   3.832   0.486   0.980  0.0190 -0.9662  2.5142
  883EMI    H2"16776   3.835   0.611   1.099 -0.5145 -0.4432 -1.2522
  883EMI    H2"16777   3.780   0.444   1.138 -0.1621 -1.7613  0.2490
  884EMI     N116778   3.954   1.830   0.379 -0.0418  0.1952 -0.2402
  884EMI     C216779   3.881   1.855   0.481 -0.3039 -0.2995 -0.5137
  884EMI     N316780   3.830   1.740   0.530 -0.3359  0.0726 -0.2797
  884EMI     C416781   3.878   1.639   0.451  0.1701  0.0068 -0.0940
  884EMI     C516782   3.966   1.695   0.360 -0.1740 -0.0681 -0.0690
  884EMI     H216783   3.866   1.952   0.523 -0.5651  1.5158 -1.4067
  884EMI     H416784   3.872   1.535   0.468 -0.7178 -0.6227  0.0521
  884EMI     H516785   4.023   1.643   0.285 -2.7905  1.1685  2.2951
  884EMI    C1'16786   3.752   1.731   0.651  0.0775 -0.1443 -0.0860
  884EMI    H1'16787   3.652   1.765   0.622 -0.2972 -1.6461 -0.5479
  884EMI    H1'16788   3.749   1.636   0.692  1.0000  1.1791  1.1293
  884EMI    H1'16789   3.791   1.800   0.729 -0.1187  1.2764  0.9086
  884EMI    C1"16790   4.036   1.921   0.298  0.0393  0.1010  0.0910
  884EMI    H1"16791   3.971   1.980   0.233 -1.5452  0.6678 -0.6254
  884EMI    H1"16792   4.100   1.852   0.237 -0.0340  1.5747  1.1900
  884EMI    C2"16793   4.114   2.015   0.391  0.2235 -0.9723 -0.3922
  884EMI    H2"16794   4.055   2.087   0.439 -0.9968  1.0748  2.3180
  884EMI    H2"16795   4.164   1.957   0.475  2.3222 -0.5630  1.2799
  884EMI    H2"16796   4.196   2.064   0.346 -1.9394 -0.1967  0.3607
  885EMI     N116797   1.377   1.727   4.924 -1.3731  0.8779 -0.3027
  885EMI     C216798   1.397   1.746   5.058  0.4944  0.3357 -0.5645
  885EMI     N316799   1.286   1.708   5.120  0.3603  0.2730  0.2669
  885EMI     C416800   1.195   1.658   5.027 -0.3924 -0.3630  0.6786
  885EMI     C516801   1.253   1.665   4.903 -0.2776 -0.7279 -0.0555
  885EMI     H216802   1.496   1.775   5.104  1.9559  1.2535  2.8773
  885EMI     H416803   1.095   1.621   5.048 -1.9897 -1.5109 -1.7846
  885EMI     H516804   1.216   1.636   4.809 -0.9204 -4.4790  0.0041
  885EMI    C1'16805   1.259   1.707   5.262  0.5150  0.2520 -0.5631
  885EMI    H1'16806   1.167   1.762   5.272 -0.5528 -1.0380  0.0076
  885EMI    H1'16807   1.260   1.611   5.302 -0.8047 -3.3077 -1.2881
  885EMI    H1'16808   1.320   1.766   5.315 -0.5506 -3.5333  1.4588
  885EMI    C1"16809   1.479   1.737   4.820  0.4181  0.3117 -0.0036
  885EMI    H1"16810   1.548   1.819   4.842 -2.4241  0.7793  0.9614
  885EMI    H1"16811   1.418   1.752   4.730 -1.4514 -0.0360  4.2508
  885EMI    C2"16812   1.558   1.605   4.819  0.5028  0.5332  0.0461
  885EMI    H2"16813   1.615   1.600   4.911  1.3437  1.6060  1.8174
  885EMI    H2"16814   1.491   1.512   4.808 -0.2656 -0.0868  0.3080
  885EMI    H2"16815   1.623   1.601   4.736  1.8953  1.2061  1.1615
  886EMI     N116816   5.823   5.489   3.447 -0.3725 -0.3999 -0.5445
  886EMI     C216817   5.690   5.504   3.456  0.4149  0.7820  0.5806
  886EMI     N316818   5.648   5.552   3.338 -0.0698  0.0087  0.0184
  886EMI     C416819   5.750   5.547   3.248 -0.0076 -0.1002 -0.5849
  886EMI     C516820   5.858   5.506   3.314 -0.6603 -0.2033  0.1474
  886EMI     H216821   5.630   5.479   3.548  1.0172 -1.9220  1.2251
  886EMI     H416822   5.743   5.579   3.147  0.4505 -0.0564 -0.2141
  886EMI     H516823   5.962   5.510   3.280 -0.0230 -2.8199 -1.0959
  886EMI    C1'16824   5.510   5.593   3.295  0.3315  0.9687  0.1131
  886EMI    H1'16825   5.448   5.524   3.240 -0.9644  1.9377  1.7016
  886EMI    H1'16826   5.461   5.636   3.382  2.3584  0.3698 -1.6632
  886EMI    H1'16827   5.517   5.684   3.237 -0.6037 -0.1749 -0.9140
  886EMI    C1"16828   5.918   5.451   3.555 -0.5769  0.0001 -0.3014
  886EMI    H1"16829   5.868   5.462   3.649 -0.1415 -1.8546 -0.5019
  886EMI    H1"16830   6.014   5.504   3.547  0.0903  1.9297 -0.5041
  886EMI    C2"16831   5.936   5.301   3.547 -0.2214  0.0306  0.4553
  886EMI    H2"16832   5.989   5.275   3.453 -1.2720 -3.6204 -1.1516
  886EMI    H2"16833   5.997   5.264   3.633  2.4002  0.4168  0.8721
  886EMI    H2"16834   5.841   5.252   3.549  1.0329 -1.7428  0.9476
  887EMI     N116835   1.389   3.298   4.622  0.3001  0.2401 -0.6499
  887EMI     C216836   1.505   3.271   4.689  0.1246 -0.7175 -0.4622
  887EMI     N316837   1.505   3.335   4.801 -0.0542  0.3415  0.3799
  887EMI     C416838   1.399   3.423   4.798 -0.2427 -0.1763  0.1994
  887EMI     C516839   1.331   3.401   4.686  0.4364 -0.8863 -0.4051
  887EMI     H216840   1.583   3.202   4.673 -2.7666 -0.2291  0.9750
  887EMI     H416841   1.375   3.494   4.876  2.2667  0.0727  2.1513
  887EMI     H516842   1.243   3.455   4.664  1.9101  0.7666  0.6642
  887EMI    C1'16843   1.611   3.334   4.899  0.5650 -0.6991 -0.1043
  887EMI    H1'16844   1.592   3.280   4.987  2.1734  0.0169  5.8003
  887EMI    H1'16845   1.692   3.282   4.862 -3.6546 -0.3034 -0.7753
  887EMI    H1'16846   1.639   3.436   4.922  0.5715  1.4717 -0.1060
  887EMI    C1"16847   1.321   3.235   4.502  0.2782  0.3647  0.5029
  887EMI    H1"16848   1.395   3.189   4.436 -0.2106  1.2072 -0.7208
  887EMI    H1"16849   1.265   3.316   4.452  0.2557  0.6801 -1.9924
  887EMI    C2"16850   1.219   3.130   4.543 -0.1920  0.5349  0.6046
  887EMI    H2"16851   1.131   3.182   4.581  0.7757  0.5177  1.8316
  887EMI    H2"16852   1.192   3.084   4.443  0.3549 -0.2303  0.6668
  887EMI    H2"16853   1.260   3.065   4.613  1.8898  0.6762  0.2245
  888EMI     N116854   5.716   4.521   1.076  0.5387  0.9514 -0.0963
  888EMI     C216855   5.663   4.623   1.150  0.8012  0.0446 -0.7299
  888EMI     N316856   5.568   4.568   1.229 -0.5929 -0.1778 -0.2553
  888EMI     C416857   5.553   4.436   1.197  0.0961 -0.0487 -0.1534
  888EMI     C516858   5.646   4.406   1.111  0.9246 -0.4075 -0.1620
  888EMI     H216859   5.689   4.730   1.156 -0.1128 -2.6060  1.0504
  888EMI     H416860   5.486   4.361   1.237 -2.6703 -0.0371  0.8144
  888EMI     H516861   5.670   4.307   1.072  0.2072 -0.0716  0.8528
  888EMI    C1'16862   5.484   4.630   1.337 -0.0703  0.0347  0.3450
  888EMI    H1'16863   5.530   4.711   1.390 -3.4365  3.1658  1.8977
  888EMI    H1'16864   5.401   4.678   1.290 -0.7681 -0.9331  0.4764
  888EMI    H1'16865   5.453   4.556   1.410 -1.0437 -1.5644  0.0387
  888EMI    C1"16866   5.824   4.526   0.974  0.1775  0.8556  0.0102
  888EMI    H1"16867   5.881   4.435   0.966 -1.5364  1.4497  0.4246
  888EMI    H1"16868   5.894   4.609   0.997  1.8058 -1.3600 -0.2690
  888EMI    C2"16869   5.763   4.556   0.829  0.6943  0.4914 -0.7121
  888EMI    H2"16870   5.832   4.615   0.766  1.1105  0.9666 -3.2066
  888EMI    H2"16871   5.759   4.469   0.756  3.2822  0.0979 -0.1366
  888EMI    H2"16872   5.665   4.599   0.830  0.3401  0.2741  0.1455
  889EMI     N116873   2.029   1.441   0.325 -0.3112  0.0381 -0.1598
  889EMI     C216874   1.974   1.483   0.212 -0.4785  0.0083  0.2516
  889EMI     N316875   2.061   1.463   0.108 -0.0606 -0.8433 -0.0249
  889EMI     C416876   2.178   1.406   0.160 -0.3730 -0.2551 -0.4246
  889EMI     C516877   2.161   1.404   0.295  0.2906 -0.3597  0.0696
  889EMI     H216878   1.880   1.517   0.198 -0.5041 -1.8945  0.3123
  889EMI     H416879   2.268   1.387   0.101  1.2622  2.0552 -1.7270
  889EMI     H516880   2.243   1.384   0.368 -0.2074 -0.5070 -1.7666
  889EMI    C1'16881   2.046   1.493  -0.041 -0.1249  0.0314 -0.4676
  889EMI    H1'16882   1.969   1.438  -0.090  0.6362 -0.0756 -0.9597
  889EMI    H1'16883   2.021   1.599  -0.062 -0.5891  0.4461  1.3874
  889EMI    H1'16884   2.134   1.457  -0.092 -0.2830  0.7846  1.1620
  889EMI    C1"16885   1.986   1.450   0.463  0.1881  0.4071 -0.4998
  889EMI    H1"16886   2.062   1.422   0.538 -0.9069  1.3791  0.1873
  889EMI    H1"16887   1.897   1.387   0.476  0.5673  0.2940 -1.8548
  889EMI    C2"16888   1.966   1.597   0.496 -0.2376 -0.0790 -1.0682
  889EMI    H2"16889   2.058   1.653   0.480  0.6720 -0.0841 -0.6841
  889EMI    H2"16890   1.887   1.647   0.439  0.4670  0.1060 -1.0066
  889EMI    H2"16891   1.933   1.598   0.602  2.2092  0.8373 -0.9808
  890EMI     N116892   2.612   0.796   0.087  0.0144  0.0498  0.3682
  890EMI     C216893   2.678   0.678   0.094 -0.2775 -0.5322 -0.5873
  890EMI     N316894   2.809   0.697   0.075  0.6906  0.9460 -0.1388
  890EMI     C416895   2.829   0.828   0.047 -0.5136  0.1827  0.4860
  890EMI     C516896   2.709   0.891   0.045 -0.5285 -0.1950 -0.5569
  890EMI     H216897   2.637   0.580   0.110  0.0670  1.1564  0.3718
  890EMI     H416898   2.931   0.860   0.020  0.3114 -0.7299 -0.6948
  890EMI     H516899   2.690   0.994   0.039 -0.7035 -0.6563 -1.7750
  890EMI    C1'16900   2.921   0.607   0.109 -0.4567 -0.3658 -0.4191
  890EMI    H1'16901   2.897   0.509   0.140 -2.1722  2.3557  0.5068
  890EMI    H1'16902   2.974   0.592   0.009 -1.0471 -1.7470 -2.0747
  890EMI    H1'16903   2.984   0.657   0.175 -0.5947 -1.7018  0.2310
  890EMI    C1"16904   2.466   0.825   0.098  0.8884 -0.6804  0.0879
  890EMI    H1"16905   2.447   0.926   0.144  2.8973 -0.3443 -1.7414
  890EMI    H1"16906   2.422   0.751   0.165  0.2119  2.4424 -0.4349
  890EMI    C2"16907   2.403   0.824  -0.044 -0.7704  0.0992 -0.0788
  890EMI    H2"16908   2.425   0.918  -0.096 -2.2091 -1.3104 -0.7254
  890EMI    H2"16909   2.423   0.735  -0.093 -0.8830  3.1262  1.3492
  890EMI    H2"16910   2.295   0.834  -0.036 -1.2056  0.5885  1.0093
  891EMI     N116911   1.755   5.215   0.252  0.4059 -0.0768  0.1923
  891EMI     C216912   1.754   5.087   0.290 -0.0226  0.0363 -0.1772
  891EMI     N316913   1.655   5.058   0.378 -0.2683 -0.3473 -0.5896
  891EMI     C416914   1.582   5.178   0.389 -0.3167  0.4590 -1.0766
  891EMI     C516915   1.643   5.272   0.310 -0.2906  0.1753  0.2614
  891EMI     H216916   1.827   5.013   0.254 -0.4003  1.3134 -1.3639
  891EMI     H416917   1.498   5.194   0.458 -0.3847 -0.4453  0.7260
  891EMI     H516918   1.624   5.380   0.291 -0.9262 -2.0972  1.0770
  891EMI    C1'16919   1.602   4.934   0.442  0.8199  0.2524  0.0273
  891EMI    H1'16920   1.500   4.936   0.455  0.9243  0.3258  1.6846
  891EMI    H1'16921   1.627   4.861   0.369  1.4877  0.1703 -2.5908
  891EMI    H1'16922   1.659   4.916   0.533  1.8274  1.3806 -0.8706
  891EMI    C1"16923   1.861   5.297   0.195 -0.6061 -0.1098  0.3165
  891EMI    H1"16924   1.937   5.225   0.173  0.1397 -1.3571  0.2165
  891EMI    H1"16925   1.891   5.378   0.269  1.0877  2.2225  0.8913
  891EMI    C2"16926   1.825   5.356   0.055 -0.5349 -1.0758 -0.6712
  891EMI    H2"16927   1.791   5.276  -0.010  3.3220 -0.4642 -1.6499
  891EMI    H2"16928   1.764   5.445   0.070  2.0672  0.8365  1.2961
  891EMI    H2"16929   1.922   5.389   0.013  0.7092 -0.1280  0.5846
  892EMI     N116930   2.365   4.847   3.033  0.0941  0.0326 -0.0336
  892EMI     C216931   2.366   4.767   3.140 -0.0810  0.1557  0.3660
  892EMI     N316932   2.426   4.823   3.244  0.1642  1.1136 -0.0732
  892EMI     C416933   2.467   4.944   3.203 -0.4661 -0.4987  0.3403
  892EMI     C516934   2.431   4.961   3.074 -0.4823  0.0023 -0.4738
  892EMI     H216935   2.332   4.658   3.145  0.8551 -1.8952  1.1510
  892EMI     H416936   2.531   5.011   3.266 -1.0688 -0.1812  1.1338
  892EMI     H516937   2.448   5.054   3.019  0.2456 -0.1661 -0.1958
  892EMI    C1'16938   2.447   4.782   3.382  0.2526 -0.3273  0.1205
  892EMI    H1'16939   2.363   4.827   3.431  2.1671 -2.2132  1.0873
  892EMI    H1'16940   2.445   4.680   3.396  1.5621 -1.1162  1.8563
  892EMI    H1'16941   2.547   4.813   3.414 -5.2469  0.1410  0.3821
  892EMI    C1"16942   2.306   4.842   2.896 -0.7514  0.6589 -0.2593
  892EMI    H1"16943   2.293   4.946   2.863  0.3237 -0.0086  0.0800
  892EMI    H1"16944   2.207   4.792   2.908  0.5456 -1.9459  0.0998
  892EMI    C2"16945   2.398   4.755   2.807  0.1213  0.2295  0.0240
  892EMI    H2"16946   2.356   4.765   2.709 -0.8539 -1.6739  1.6718
  892EMI    H2"16947   2.499   4.791   2.813 -0.8757 -0.1162 -0.6066
  892EMI    H2"16948   2.392   4.648   2.833  1.3469 -0.0835  0.7252
  893EMI     N116949   3.659   0.474   1.483  0.2621 -1.0381  0.0644
  893EMI     C216950   3.593   0.579   1.432 -0.3869 -1.0830 -0.2145
  893EMI     N316951   3.685   0.672   1.412  0.1254  0.2464 -0.6051
  893EMI     C416952   3.809   0.625   1.446  0.2376 -0.1615 -1.3070
  893EMI     C516953   3.792   0.502   1.492  0.3567  0.5299  0.1879
  893EMI     H216954   3.487   0.589   1.411 -0.3768 -1.0467 -0.4543
  893EMI     H416955   3.905   0.678   1.441 -1.4690  0.4290 -0.7665
  893EMI     H516956   3.875   0.437   1.527 -0.7430 -2.8465  2.3946
  893EMI    C1'16957   3.674   0.797   1.338 -0.1777 -0.1813  0.2310
  893EMI    H1'16958   3.724   0.876   1.394 -0.8414 -0.7142  0.8046
  893EMI    H1'16959   3.706   0.774   1.238  1.9765  1.3465 -0.3829
  893EMI    H1'16960   3.569   0.816   1.321 -0.1727  0.5501  0.6499
  893EMI    C1"16961   3.610   0.344   1.532 -0.4662 -1.0032  0.3169
  893EMI    H1"16962   3.516   0.355   1.585 -0.0111 -2.4139  0.1611
  893EMI    H1"16963   3.678   0.300   1.599  0.9692  0.2344 -0.2135
  893EMI    C2"16964   3.586   0.254   1.408  0.3152  0.2578  0.0606
  893EMI    H2"16965   3.665   0.261   1.337  0.2604  1.0568  1.1534
  893EMI    H2"16966   3.585   0.150   1.438  0.6373  2.0741 -0.6983
  893EMI    H2"16967   3.487   0.281   1.371 -1.3079 -0.3294  0.0308
  894EMI     N116968   0.999   4.570   2.670  0.2504  0.0070  0.3891
  894EMI     C216969   0.961   4.644   2.564 -0.1752 -0.4392  0.0126
  894EMI     N316970   1.041   4.621   2.461  0.7281  0.6918 -0.0167
  894EMI     C416971   1.111   4.508   2.486  0.6029  0.2109 -0.3486
  894EMI     C516972   1.090   4.474   2.616  0.6608 -0.5315  0.0092
  894EMI     H216973   0.893   4.735   2.559 -0.2058  1.2957 -0.6198
  894EMI     H416974   1.178   4.458   2.411 -0.2562 -1.2067 -2.9629
  894EMI     H516975   1.133   4.396   2.676  0.8886  3.2558  0.7315
  894EMI    C1'16976   1.045   4.679   2.319 -0.0807  0.4844  0.1897
  894EMI    H1'16977   1.100   4.607   2.254 -2.1152 -0.0593  1.2469
  894EMI    H1'16978   0.948   4.673   2.270 -1.1855  3.1603 -0.8528
  894EMI    H1'16979   1.084   4.779   2.311 -0.6337 -2.2942 -2.3398
  894EMI    C1"16980   0.950   4.578   2.807 -0.5387 -0.1307  0.2844
  894EMI    H1"16981   0.844   4.572   2.804  1.6843 -0.4189  1.3980
  894EMI    H1"16982   0.979   4.673   2.850 -0.6855  0.1998  1.3028
  894EMI    C2"16983   1.014   4.474   2.891 -0.7339  0.2413 -0.7969
  894EMI    H2"16984   0.957   4.486   2.989 -1.3682  1.6286  0.7825
  894EMI    H2"16985   1.007   4.380   2.849 -1.4333 -0.2866  1.5261
  894EMI    H2"16986   1.123   4.492   2.904 -0.2690 -1.1495  0.8602
  895EMI     N116987   0.091   1.311   0.616 -0.4265  0.4102 -0.3250
  895EMI     C216988  -0.039   1.305   0.568  0.2156  0.6267 -0.6264
  895EMI     N316989  -0.049   1.345   0.441 -0.4258 -0.2514  0.4190
  895EMI     C416990   0.077   1.389   0.399  0.0413  0.1216  0.1216
  895EMI     C516991   0.160   1.362   0.502 -0.3745 -0.4194  0.1897
  895EMI     H216992  -0.135   1.274   0.609  0.7808  2.0859 -1.3567
  895EMI     H416993   0.107   1.424   0.299 -2.5594  1.0241 -1.0059
  895EMI     H516994   0.266   1.379   0.499  0.6301 -1.6414  0.6554
  895EMI    C1'16995  -0.163   1.354   0.353  0.5037  0.3815 -0.5301
  895EMI    H1'16996  -0.155   1.419   0.270  0.4269  1.7122  4.5151
  895EMI    H1'16997  -0.174   1.250   0.325 -0.6293 -1.2619  0.8625
  895EMI    H1'16998  -0.254   1.380   0.405  0.6484 -0.5691 -3.8101
  895EMI    C1"16999   0.146   1.277   0.749 -0.0883 -0.2827 -0.2315
  895EMI    H1"17000   0.223   1.198   0.739  2.1561 -0.8320  0.9748
  895EMI    H1"17001   0.069   1.238   0.814  0.0926 -1.9528  0.6931
  895EMI    C2"17002   0.216   1.404   0.803 -0.2013 -0.0602 -0.0641
  895EMI    H2"17003   0.285   1.382   0.886  3.2862  2.4852  0.3472
  895EMI    H2"17004   0.290   1.433   0.726  0.1510  2.7595  1.2837
  895EMI    H2"17005   0.154   1.487   0.832  2.8629  1.3452  0.7534
  896EMI     N117006   1.715   0.125   3.893  0.2704  0.1085  0.2756
  896EMI     C217007   1.619   0.084   3.975 -0.6868 -0.7538  0.2635
  896EMI     N317008   1.662  -0.021   4.053  0.4592 -0.3378 -0.8297
  896EMI     C417009   1.799  -0.043   4.026 -0.3820  0.9221 -0.5307
  896EMI     C517010   1.831   0.045   3.928 -0.1316 -0.1536 -0.1817
  896EMI     H217011   1.518   0.122   3.981  0.2067  1.5141  1.5881
  896EMI     H417012   1.858  -0.112   4.083 -3.2741  0.2964 -3.8234
  896EMI     H517013   1.927   0.054   3.878  0.0583 -0.7435  0.2070
  896EMI    C1'17014   1.596  -0.116   4.143  0.0911  0.3648 -0.4513
  896EMI    H1'17015   1.604  -0.082   4.250  2.7898 -0.7689  0.1257
  896EMI    H1'17016   1.484  -0.107   4.132 -1.4713 -0.2376 -1.6155
  896EMI    H1'17017   1.631  -0.221   4.123 -0.3111  0.2355  0.4706
  896EMI    C1"17018   1.724   0.222   3.782 -0.4586  0.1014 -0.3859
  896EMI    H1"17019   1.652   0.194   3.699  0.4436  0.9621 -2.0974
  896EMI    H1"17020   1.825   0.222   3.738  0.1115  1.2834  0.0262
  896EMI    C2"17021   1.694   0.362   3.836 -0.2082  0.7241 -0.2891
  896EMI    H2"17022   1.753   0.397   3.920  0.7740  1.1717 -1.2133
  896EMI    H2"17023   1.712   0.426   3.751  1.9662  0.2240  2.9046
  896EMI    H2"17024   1.590   0.359   3.862 -0.3718 -1.6604 -0.3260
  897EMI     N117025   4.549   3.645   1.431 -0.0253 -0.6208  0.5815
  897EMI     C217026   4.661   3.565   1.430  0.4732  0.5906  0.0411
  897EMI     N317027   4.760   3.622   1.500 -0.4078  0.1063 -0.2046
  897EMI     C417028   4.713   3.747   1.535  0.0065  0.1677 -0.2515
  897EMI     C517029   4.587   3.760   1.493 -0.5231 -0.2363  0.0236
  897EMI     H217030   4.673   3.464   1.387 -0.0662 -0.3734  0.5787
  897EMI     H417031   4.766   3.812   1.597 -3.1237 -2.2090  0.2575
  897EMI     H517032   4.524   3.845   1.502 -2.2548  0.6144  1.2983
  897EMI    C1'17033   4.896   3.586   1.526 -0.1813  0.4980  0.3388
  897EMI    H1'17034   4.932   3.607   1.622  0.2339 -3.3798 -1.1042
  897EMI    H1'17035   4.917   3.479   1.514  0.7071  0.6066 -1.7866
  897EMI    H1'17036   4.967   3.623   1.448  0.2911  0.3511  2.5398
  897EMI    C1"17037   4.418   3.618   1.372 -0.9805  0.0470  0.3171
  897EMI    H1"17038   4.424   3.539   1.296  1.7147 -1.1099  0.1663
  897EMI    H1"17039   4.383   3.704   1.321  1.4029  0.6147  2.6897
  897EMI    C2"17040   4.304   3.585   1.476  0.1867  0.2288 -0.1066
  897EMI    H2"17041   4.283   3.666   1.542 -0.1728 -2.5314 -1.0817
  897EMI    H2"17042   4.212   3.579   1.408 -2.0630  1.4351 -0.4857
  897EMI    H2"17043   4.336   3.498   1.533 -0.4161  1.4149  1.0158
  898EMI     N117044   1.648   2.335   6.270  0.2416  1.1790  0.9426
  898EMI     C217045   1.523   2.295   6.267  0.1932  0.2275  0.8085
  898EMI     N317046   1.494   2.286   6.132  0.1727 -0.8305  1.1412
  898EMI     C417047   1.609   2.319   6.066 -0.1351 -0.2664  0.2955
  898EMI     C517048   1.702   2.363   6.149 -0.4223 -0.0646  0.2514
  898EMI     H217049   1.457   2.267   6.347  0.8281 -0.2554  2.5261
  898EMI     H417050   1.616   2.330   5.960 -2.0509  1.6666 -0.4208
  898EMI     H517051   1.800   2.398   6.122 -0.0617 -0.4605  1.1111
  898EMI    C1'17052   1.372   2.255   6.055 -0.0794 -0.3058  0.4221
  898EMI    H1'17053   1.397   2.246   5.948  0.4016 -1.6642 -0.4974
  898EMI    H1'17054   1.326   2.166   6.100 -0.4698  1.5430  1.1846
  898EMI    H1'17055   1.305   2.342   6.058 -1.2096 -0.3538  1.2869
  898EMI    C1"17056   1.725   2.372   6.392  0.1412 -0.1467 -0.4890
  898EMI    H1"17057   1.660   2.381   6.483 -2.8140 -2.2564  0.5650
  898EMI    H1"17058   1.772   2.466   6.378 -0.8486 -2.2643 -0.2115
  898EMI    C2"17059   1.823   2.253   6.413 -0.0265 -1.2199 -0.4084
  898EMI    H2"17060   1.838   2.236   6.517 -1.2776  3.5002 -0.0133
  898EMI    H2"17061   1.787   2.164   6.377  0.5269  2.9390  2.5504
  898EMI    H2"17062   1.921   2.277   6.371 -0.0605 -1.3151  1.4914
  899EMI     N117063   4.567   4.644   1.658 -0.2320  0.3201  0.2192
  899EMI     C217064   4.605   4.538   1.586  0.3210 -0.0624 -0.0605
  899EMI     N317065   4.718   4.567   1.526  0.4867  0.0455  0.1504
  899EMI     C417066   4.752   4.692   1.570  0.4363  0.0140 -0.1956
  899EMI     C517067   4.665   4.740   1.660  0.1901  0.3896 -0.5990
  899EMI     H217068   4.543   4.451   1.566 -0.9094 -3.8702  0.6354
  899EMI     H417069   4.844   4.740   1.542  0.1575  0.1808  1.3307
  899EMI     H517070   4.662   4.833   1.712  0.0457  0.0755 -1.6950
  899EMI    C1'17071   4.814   4.488   1.442 -0.1523  0.2262 -0.9464
  899EMI    H1'17072   4.763   4.406   1.395  1.1289  1.1795  1.6010
  899EMI    H1'17073   4.875   4.549   1.374  0.4385 -1.7894 -1.4857
  899EMI    H1'17074   4.891   4.446   1.494 -4.6014 -0.4727 -1.9774
  899EMI    C1"17075   4.436   4.664   1.719 -0.1985  0.0466  0.5249
  899EMI    H1"17076   4.352   4.683   1.650  1.1825 -2.4607  2.4859
  899EMI    H1"17077   4.430   4.754   1.782 -2.3764  2.5654 -1.5349
  899EMI    C2"17078   4.403   4.537   1.801  0.4698 -0.4532  0.3406
  899EMI    H2"17079   4.312   4.553   1.856  0.4964  0.3435 -0.8415
  899EMI    H2"17080   4.405   4.447   1.735  1.0513 -0.9689  0.5359
  899EMI    H2"17081   4.473   4.516   1.882  0.1314 -0.8752  2.5017
  900EMI     N117082   0.163   3.069   4.746 -0.4023 -0.8529  0.4483
  900EMI     C217083   0.104   3.101   4.865 -0.2506  0.0442 -0.3246
  900EMI     N317084   0.057   3.227   4.851  0.0693  0.1442 -0.5005
  900EMI     C417085   0.075   3.273   4.724 -0.0518  0.3215 -0.1914
  900EMI     C517086   0.145   3.180   4.659  0.0592  0.1110  0.4680
  900EMI     H217087   0.088   3.036   4.946 -0.0031  2.3934 -2.0232
  900EMI     H417088   0.040   3.372   4.683  0.4300 -1.1587  1.3419
  900EMI     H517089   0.175   3.184   4.555  0.3561  4.0555 -0.5934
  900EMI    C1'17090  -0.027   3.296   4.947  0.5154  0.4673  0.1738
  900EMI    H1'17091  -0.136   3.261   4.934 -3.5570  0.1360  0.7017
  900EMI    H1'17092   0.013   3.282   5.051  1.6278 -2.5700 -0.2073
  900EMI    H1'17093  -0.024   3.399   4.921  1.9624 -0.3037  0.7013
  900EMI    C1"17094   0.225   2.942   4.700  0.4006 -0.5509  0.2144
  900EMI    H1"17095   0.319   2.919   4.746 -1.6630 -0.2306 -0.8482
  900EMI    H1"17096   0.252   2.944   4.594  0.9674 -1.6586 -1.7909
  900EMI    C2"17097   0.139   2.818   4.729 -0.0106 -0.0228  0.5275
  900EMI    H2"17098   0.207   2.736   4.756  1.1266 -1.1544  1.0296
  900EMI    H2"17099   0.072   2.842   4.813 -1.3852  0.8104  2.2109
  900EMI    H2"17100   0.080   2.796   4.643  0.6425 -0.1802  1.1012
  901EMI     N117101   4.658   5.066   4.808 -0.4849  0.3559  0.2999
  901EMI     C217102   4.524   5.088   4.832  0.2321 -0.7018 -0.3081
  901EMI     N317103   4.492   5.218   4.797  0.2193 -0.0704  0.6394
  901EMI     C417104   4.614   5.272   4.761 -0.3499  0.7073 -0.3123
  901EMI     C517105   4.714   5.186   4.774  0.1667 -0.0233  0.2125
  901EMI     H217106   4.451   5.013   4.846  2.8143  1.6527 -4.3163
  901EMI     H417107   4.631   5.377   4.744  1.7072  0.1525 -1.6828
  901EMI     H517108   4.821   5.208   4.756 -1.5101 -1.7268 -0.1439
  901EMI    C1'17109   4.363   5.291   4.780 -0.0919 -0.0169  0.2577
  901EMI    H1'17110   4.372   5.385   4.720  0.0580 -0.6071 -1.4571
  901EMI    H1'17111   4.305   5.235   4.706  0.5094  0.2101 -0.7973
  901EMI    H1'17112   4.303   5.307   4.872 -1.4192 -0.9898 -3.4243
  901EMI    C1"17113   4.744   4.940   4.820 -0.3923 -0.0097  0.0197
  901EMI    H1"17114   4.847   4.969   4.811  1.1829  1.2202  0.8603
  901EMI    H1"17115   4.715   4.875   4.742  1.9415 -0.1667 -0.4867
  901EMI    C2"17116   4.735   4.861   4.952 -0.5917  0.0896  0.9097
  901EMI    H2"17117   4.733   4.929   5.038  3.8163  3.3744 -0.0091
  901EMI    H2"17118   4.646   4.799   4.939  1.1373 -0.6196 -2.0625
  901EMI    H2"17119   4.823   4.798   4.962  0.8211 -1.1514 -0.7985
  902EMI     N117120   2.757   3.881   1.270  0.1488  0.1158  0.7415
  902EMI     C217121   2.701   3.833   1.157 -0.1990 -1.1697 -0.6435
  902EMI     N317122   2.758   3.904   1.051  0.6566 -0.0289  0.2020
  902EMI     C417123   2.850   3.993   1.106  0.1052 -0.3313 -0.0191
  902EMI     C517124   2.852   3.976   1.240  0.5428  0.6613  0.1562
  902EMI     H217125   2.630   3.748   1.149 -0.3031  1.0073  1.1235
  902EMI     H417126   2.920   4.056   1.050  2.5206 -2.4680  0.4552
  902EMI     H517127   2.924   4.024   1.307  0.1292 -0.7991  0.8337
  902EMI    C1'17128   2.725   3.884   0.910  0.2481 -0.1592  0.0547
  902EMI    H1'17129   2.801   3.831   0.860 -1.5720  0.6629  0.1303
  902EMI    H1'17130   2.622   3.846   0.895 -2.4369  0.7709  0.4402
  902EMI    H1'17131   2.731   3.980   0.857 -1.4943  0.1561 -0.5174
  902EMI    C1"17132   2.727   3.828   1.398  0.4304 -0.4579 -0.5692
  902EMI    H1"17133   2.654   3.742   1.379  0.7662 -1.1281 -1.5604
  902EMI    H1"17134   2.678   3.909   1.464  0.0072 -1.9368  4.4447
  902EMI    C2"17135   2.837   3.770   1.470  0.5299  0.2588 -0.0226
  902EMI    H2"17136   2.808   3.743   1.570 -1.3857  3.3058 -0.3119
  902EMI    H2"17137   2.876   3.694   1.402 -1.1869 -0.7187  1.7959
  902EMI    H2"17138   2.920   3.849   1.485 -0.4112  1.9694 -0.1192
  903EMI     N117139   3.961   5.740   5.340 -0.8395  0.2311 -0.3554
  903EMI     C217140   3.982   5.865   5.385  0.2317 -0.2482 -0.3112
  903EMI     N317141   4.114   5.890   5.399 -0.3894 -0.0416 -0.0471
  903EMI     C417142   4.179   5.778   5.358 -0.0262  0.1255 -0.8018
  903EMI     C517143   4.081   5.685   5.321 -0.4101 -0.3553  0.2263
  903EMI     H217144   3.902   5.937   5.381  0.1161 -1.7300 -0.4426
  903EMI     H417145   4.286   5.769   5.357  1.7428  1.8588 -1.9070
  903EMI     H517146   4.104   5.584   5.289 -0.1032 -1.1035  1.2064
  903EMI    C1'17147   4.174   6.019   5.438  0.1998 -0.2208  0.0183
  903EMI    H1'17148   4.242   5.992   5.528  3.0050 -0.7082  0.1282
  903EMI    H1'17149   4.241   6.053   5.355  2.2169  2.3387 -1.8418
  903EMI    H1'17150   4.100   6.093   5.465  2.7758 -4.8453 -0.6286
  903EMI    C1"17151   3.846   5.663   5.306  0.6810 -0.2933  0.7367
  903EMI    H1"17152   3.880   5.565   5.268 -0.0083  0.7803  1.1552
  903EMI    H1"17153   3.781   5.710   5.227 -1.7304 -0.9885 -1.6163
  903EMI    C2"17154   3.761   5.634   5.428  0.1613  0.1897 -0.1163
  903EMI    H2"17155   3.814   5.610   5.521  2.8223 -3.2926  1.0916
  903EMI    H2"17156   3.698   5.724   5.455 -1.7004 -0.7882 -1.8330
  903EMI    H2"17157   3.701   5.547   5.406  0.9585  1.2768  1.0637
  904EMI     N117158   5.963   0.510   5.146 -0.1761  0.4873  0.0443
  904EMI     C217159   6.044   0.459   5.243 -0.2767  0.1895 -0.2478
  904EMI     N317160   5.971   0.419   5.349 -0.1151 -0.2377  0.2607
  904EMI     C417161   5.839   0.445   5.314 -0.8976 -0.0616  0.6132
  904EMI     C517162   5.832   0.501   5.186 -0.5609  1.0191 -0.8409
  904EMI     H217163   6.150   0.454   5.229  0.1197 -0.8285 -0.2788
  904EMI     H417164   5.758   0.424   5.386 -1.2220 -2.4288  1.8461
  904EMI     H517165   5.742   0.540   5.137  1.0865 -1.4452  1.4709
  904EMI    C1'17166   6.002   0.357   5.480 -1.1573  0.3961 -0.3204
  904EMI    H1'17167   5.931   0.273   5.476 -0.8320  0.9682 -0.4465
  904EMI    H1'17168   6.102   0.317   5.489 -3.7305 -0.8374  0.0559
  904EMI    H1'17169   5.985   0.415   5.570  2.2787 -2.0211  0.8242
  904EMI    C1"17170   6.006   0.558   5.004  0.2095  0.1545 -0.3846
  904EMI    H1"17171   5.931   0.532   4.934 -3.3867 -0.3988  0.9425
  904EMI    H1"17172   6.098   0.508   4.976  1.0669 -1.5885  0.9167
  904EMI    C2"17173   6.021   0.709   5.011  0.5561  0.6249 -0.1450
  904EMI    H2"17174   6.102   0.735   5.079  0.2131  0.7770 -2.2813
  904EMI    H2"17175   6.041   0.738   4.905 -2.0109  0.8493 -2.4775
  904EMI    H2"17176   5.927   0.751   5.054 -0.9695 -0.9083  1.9875
  905EMI     N117177   2.933   3.760   6.190 -0.7989  0.6763  0.0460
  905EMI     C217178   2.973   3.888   6.205  0.2044  0.1812  0.4328
  905EMI     N317179   2.874   3.955   6.259 -0.1073  0.2529  0.1252
  905EMI     C417180   2.776   3.866   6.291  0.5526  0.0751  0.9285
  905EMI     C517181   2.807   3.743   6.241  0.3929  0.5575  0.1589
  905EMI     H217182   3.072   3.927   6.188  0.2492  2.0925 -0.1062
  905EMI     H417183   2.677   3.902   6.330  1.7875  0.6481 -0.1942
  905EMI     H517184   2.733   3.662   6.239  0.0641  1.3641 -0.2474
  905EMI    C1'17185   2.848   4.102   6.284  0.3330 -0.3990  0.5834
  905EMI    H1'17186   2.847   4.124   6.395  1.1856  0.1809  0.0760
  905EMI    H1'17187   2.918   4.163   6.230 -0.4920 -0.1097 -0.3944
  905EMI    H1'17188   2.750   4.129   6.242  0.3255 -0.6640 -0.7836
  905EMI    C1"17189   2.996   3.645   6.127  0.1721 -0.1742 -0.0137
  905EMI    H1"17190   2.969   3.548   6.173  1.9515 -1.6140  0.0465
  905EMI    H1"17191   3.107   3.641   6.136  2.4175 -0.1163 -1.3423
  905EMI    C2"17192   2.954   3.645   5.977 -0.0580  1.1970  0.3126
  905EMI    H2"17193   2.989   3.556   5.934  0.2354 -0.0245  0.3361
  905EMI    H2"17194   2.847   3.643   5.970 -1.0359 -1.7742  2.1411
  905EMI    H2"17195   2.992   3.737   5.934  1.5111  1.2230 -1.0802
  906EMI     N117196   3.596   5.439   5.765  0.5041 -0.7814  0.1906
  906EMI     C217197   3.675   5.441   5.866 -0.0478  0.0718  0.5858
  906EMI     N317198   3.714   5.569   5.887  0.1268  0.6006  1.0052
  906EMI     C417199   3.652   5.645   5.792  0.0125  0.0006 -0.4970
  906EMI     C517200   3.578   5.565   5.715  0.5174  0.3345  1.0841
  906EMI     H217201   3.699   5.355   5.920  2.3558 -0.0488 -1.3645
  906EMI     H417202   3.665   5.754   5.777  0.0350  1.0999 -2.7394
  906EMI     H517203   3.514   5.593   5.630  0.2111 -2.3313 -0.1125
  906EMI    C1'17204   3.816   5.614   5.980 -0.0829 -0.6346 -0.3767
  906EMI    H1'17205   3.812   5.721   5.989  1.6921 -1.4712  0.5949
  906EMI    H1'17206   3.801   5.578   6.085 -2.6554 -0.7931 -0.0872
  906EMI    H1'17207   3.913   5.585   5.944  1.2445 -0.8299  1.6495
  906EMI    C1"17208   3.515   5.323   5.708  0.0504  0.1673 -0.6056
  906EMI    H1"17209   3.411   5.349   5.707  0.6609 -0.1284 -1.3946
  906EMI    H1"17210   3.529   5.242   5.771 -2.4048  0.3132  0.2242
  906EMI    C2"17211   3.564   5.284   5.570 -0.3839  0.8509  0.1381
  906EMI    H2"17212   3.586   5.372   5.508 -2.0800  0.3285 -0.2460
  906EMI    H2"17213   3.654   5.225   5.574 -0.0919 -1.3647  0.6723
  906EMI    H2"17214   3.492   5.219   5.517  0.4892  0.7027 -1.2853
  907EMI     N117215   0.477   3.272   6.297  0.1258  0.4009 -0.7974
  907EMI     C217216   0.590   3.231   6.362  0.3099  0.6522  0.3395
  907EMI     N317217   0.690   3.308   6.321  0.8645  0.8086  1.0566
  907EMI     C417218   0.641   3.392   6.221  0.0721 -0.3465  0.0104
  907EMI     C517219   0.512   3.366   6.201  0.3209  0.1766  0.6240
  907EMI     H217220   0.593   3.154   6.439 -2.4954  0.2723  0.8464
  907EMI     H417221   0.693   3.474   6.168  0.9789  0.7889 -0.7678
  907EMI     H517222   0.436   3.418   6.137 -0.5184  2.3718 -3.9058
  907EMI    C1'17223   0.830   3.308   6.356  0.2783  0.1273  0.0474
  907EMI    H1'17224   0.850   3.305   6.460  2.3962 -1.1200 -0.5379
  907EMI    H1'17225   0.880   3.227   6.300 -0.7372 -0.6292  0.6963
  907EMI    H1'17226   0.874   3.398   6.317 -1.0837  0.8081  1.1020
  907EMI    C1"17227   0.330   3.233   6.307  0.0330 -0.4186 -0.2743
  907EMI    H1"17228   0.319   3.133   6.258 -0.5544 -0.2120  0.4914
  907EMI    H1"17229   0.269   3.309   6.251 -3.2951 -0.5561 -2.5453
  907EMI    C2"17230   0.298   3.224   6.455 -0.5124  0.1681  0.2263
  907EMI    H2"17231   0.221   3.159   6.475 -0.4865  1.6458  1.2498
  907EMI    H2"17232   0.377   3.189   6.522 -0.6488  4.3699 -0.7856
  907EMI    H2"17233   0.277   3.326   6.485  0.5931  1.0906 -2.1091
  908EMI     N117234   1.454   2.127   2.317 -0.3529  0.0961 -0.4060
  908EMI     C217235   1.372   2.227   2.273  0.1292 -0.3194 -0.3945
  908EMI     N317236   1.285   2.178   2.184 -0.0029 -0.0256 -0.4278
  908EMI     C417237   1.324   2.052   2.157  0.4574  0.0777 -0.7322
  908EMI     C517238   1.429   2.021   2.236  0.2283  0.9252 -0.9405
  908EMI     H217239   1.365   2.322   2.323 -0.2815  0.4073 -1.8296
  908EMI     H417240   1.275   1.982   2.088 -0.1616 -0.3193  0.0896
  908EMI     H517241   1.485   1.928   2.236 -1.6409 -0.6402  1.1341
  908EMI    C1'17242   1.193   2.264   2.110 -0.1069 -0.3512  0.3797
  908EMI    H1'17243   1.117   2.299   2.181 -3.3261  2.2806  0.5351
  908EMI    H1'17244   1.250   2.342   2.060  2.3423 -0.0342 -0.4664
  908EMI    H1'17245   1.136   2.207   2.041 -1.5388 -0.7572  0.7785
  908EMI    C1"17246   1.541   2.106   2.433 -0.4529 -0.6140 -0.0374
  908EMI    H1"17247   1.565   2.002   2.445 -1.6052  0.3419 -0.5507
  908EMI    H1"17248   1.482   2.138   2.514  0.4137 -0.8581  1.7269
  908EMI    C2"17249   1.679   2.183   2.434  1.0637  0.0090  0.0989
  908EMI    H2"17250   1.661   2.290   2.403  0.7566 -2.1001 -2.0035
  908EMI    H2"17251   1.725   2.175   2.534 -0.4962 -0.2090 -3.1277
  908EMI    H2"17252   1.741   2.132   2.363 -1.6324 -3.9057 -2.0985
  909EMI     N117253   2.581   4.188   1.995  0.0921 -0.3174 -0.3855
  909EMI     C217254   2.552   4.100   2.096 -0.1384 -0.5816  0.2316
  909EMI     N317255   2.552   3.971   2.045  0.1635  0.3379  0.3454
  909EMI     C417256   2.562   3.987   1.905 -0.1493  0.3793 -0.2999
  909EMI     C517257   2.579   4.119   1.877  0.2526  0.2456  0.3820
  909EMI     H217258   2.518   4.129   2.191  1.8697 -0.1281  2.0556
  909EMI     H417259   2.565   3.902   1.834  3.2133 -2.6156 -1.3303
  909EMI     H517260   2.590   4.158   1.776 -0.3077  0.3226 -1.9905
  909EMI    C1'17261   2.530   3.840   2.110  0.1604 -0.5500 -0.8648
  909EMI    H1'17262   2.491   3.850   2.210 -0.3210  0.6280 -2.3423
  909EMI    H1'17263   2.454   3.781   2.056  0.5648  1.3279 -1.7882
  909EMI    H1'17264   2.624   3.789   2.122 -1.0524  2.3447 -0.8943
  909EMI    C1"17265   2.604   4.335   1.999  0.1741 -0.2472  0.5158
  909EMI    H1"17266   2.519   4.390   2.046  1.1670 -0.4923  1.5905
  909EMI    H1"17267   2.615   4.370   1.898  0.6189  1.6048  0.7091
  909EMI    C2"17268   2.726   4.364   2.081  0.2805 -0.9069 -0.0786
  909EMI    H2"17269   2.729   4.467   2.106  0.2733 -1.2881  1.4595
  909EMI    H2"17270   2.716   4.312   2.181  3.5658 -1.6568 -1.1300
  909EMI    H2"17271   2.812   4.320   2.025  1.3834  0.8270  1.0156
  910EMI     N117272   0.696   4.333   1.588 -0.3729 -0.7591  0.6888
  910EMI     C217273   0.758   4.441   1.521 -0.2749  0.0274  0.2526
  910EMI     N317274   0.874   4.468   1.582  0.6027  0.1962 -0.3080
  910EMI     C417275   0.887   4.382   1.692  0.1152  0.6649 -0.2084
  910EMI     C517276   0.778   4.301   1.694  0.2835 -0.7340 -0.4136
  910EMI     H217277   0.736   4.498   1.434  2.2366 -1.6097  1.8879
  910EMI     H417278   0.969   4.376   1.758 -2.6952  0.4807  0.5732
  910EMI     H517279   0.764   4.232   1.771 -1.3665 -1.2849 -1.0295
  910EMI    C1'17280   0.968   4.568   1.555 -0.4751 -0.2551  0.7130
  910EMI    H1'17281   0.958   4.598   1.450 -3.2473 -1.8322 -0.5040
  910EMI    H1'17282   0.954   4.661   1.619  1.4635  0.8031  2.0467
  910EMI    H1'17283   1.062   4.526   1.582 -0.4950  0.6641 -1.1049
  910EMI    C1"17284   0.566   4.265   1.567  0.2964 -0.1737 -0.5464
  910EMI    H1"17285   0.507   4.321   1.498  3.0072  1.9109 -0.3668
  910EMI    H1"17286   0.514   4.259   1.666  0.4253 -0.6470  1.2725
  910EMI    C2"17287   0.579   4.127   1.508  0.1478 -0.1860  0.0319
  910EMI    H2"17288   0.622   4.140   1.406  1.9882  2.4007  0.5644
  910EMI    H2"17289   0.654   4.070   1.560 -3.1094  0.4362 -1.1963
  910EMI    H2"17290   0.476   4.078   1.499 -1.4734  0.6963 -0.2118
  911EMI     N117291   2.568   2.796   0.015  0.5694 -0.1588 -0.5624
  911EMI     C217292   2.596   2.854   0.134 -0.0969 -0.1413 -0.0539
  911EMI     N317293   2.512   2.813   0.233 -0.2577 -0.5961 -0.4275
  911EMI     C417294   2.421   2.725   0.168 -0.3376 -0.1333  0.4134
  911EMI     C517295   2.460   2.720   0.039  0.0796  0.7319 -0.0746
  911EMI     H217296   2.684   2.915   0.145  1.6330 -0.8780 -1.8110
  911EMI     H417297   2.332   2.680   0.207  0.7995 -0.7970  0.5174
  911EMI     H517298   2.402   2.661  -0.032  2.0456  1.6257  0.7814
  911EMI    C1'17299   2.506   2.850   0.368  0.3480 -0.3170 -0.7271
  911EMI    H1'17300   2.570   2.784   0.420  0.9909 -1.0330 -0.9591
  911EMI    H1'17301   2.535   2.958   0.388  1.6704 -0.0755  0.7872
  911EMI    H1'17302   2.397   2.839   0.392 -3.0018  2.3132 -0.1747
  911EMI    C1"17303   2.624   2.822  -0.113 -0.6828  0.0378  0.4045
  911EMI    H1"17304   2.689   2.906  -0.105 -0.8654 -2.1291 -0.6221
  911EMI    H1"17305   2.538   2.844  -0.187  0.7473 -0.3351 -0.9333
  911EMI    C2"17306   2.710   2.700  -0.149  0.1931 -0.0863  0.8474
  911EMI    H2"17307   2.788   2.701  -0.076  1.9517  2.6177 -2.6419
  911EMI    H2"17308   2.650   2.606  -0.142  1.9423 -2.4949  0.2735
  911EMI    H2"17309   2.758   2.711  -0.243 -3.0309  0.1594 -0.1756
  912EMI     N117310   6.101   5.672   2.153  0.4181  0.7497 -0.6513
  912EMI     C217311   6.099   5.778   2.072  1.1081  0.4313 -0.6859
  912EMI     N317312   5.996   5.777   1.992 -0.0682 -0.7750  0.8269
  912EMI     C417313   5.929   5.664   2.022 -0.6025  0.0702 -0.0322
  912EMI     C517314   5.994   5.595   2.122 -0.1871  0.2190 -0.4106
  912EMI     H217315   6.154   5.872   2.076  0.4363 -0.5863 -0.9107
  912EMI     H417316   5.829   5.627   1.980  0.1271 -0.9899 -0.1051
  912EMI     H517317   5.960   5.502   2.171 -0.6439  2.4068  0.2674
  912EMI    C1'17318   5.938   5.883   1.905  0.4216 -0.1119  0.7909
  912EMI    H1'17319   5.841   5.854   1.861  1.6032 -0.2384  0.2856
  912EMI    H1'17320   5.912   5.971   1.969 -0.5427  2.1092  0.0269
  912EMI    H1'17321   6.005   5.922   1.823 -0.3140 -0.8251 -0.5828
  912EMI    C1"17322   6.208   5.633   2.258  0.7581  0.2189  0.1245
  912EMI    H1"17323   6.277   5.709   2.270  0.2554  0.8647  1.6490
  912EMI    H1"17324   6.248   5.544   2.214  2.9349 -0.6008 -1.3571
  912EMI    C2"17325   6.134   5.588   2.394  0.8717 -0.5598 -0.0247
  912EMI    H2"17326   6.089   5.663   2.454 -1.4933 -3.2950 -1.5303
  912EMI    H2"17327   6.063   5.509   2.362 -0.4756 -0.3858 -0.5646
  912EMI    H2"17328   6.207   5.541   2.447 -1.3046 -0.4329 -0.9480
  913EMI     N117329   5.622   5.629   0.094  0.3873  0.4277 -0.6668
  913EMI     C217330   5.543   5.594   0.199 -0.2699 -0.1837 -0.1711
  913EMI     N317331   5.548   5.691   0.285  0.0915 -0.0355  0.3441
  913EMI     C417332   5.618   5.799   0.237  0.0311  0.5742  0.0754
  913EMI     C517333   5.665   5.763   0.115 -0.2711 -0.0529 -0.2190
  913EMI     H217334   5.486   5.505   0.197 -0.7483 -0.8463  1.2686
  913EMI     H417335   5.623   5.902   0.287  3.8954 -1.7412 -0.2767
  913EMI     H517336   5.726   5.823   0.050 -2.3333  1.8456 -1.3286
  913EMI    C1'17337   5.479   5.702   0.413 -0.4197  0.4508 -0.3455
  913EMI    H1'17338   5.535   5.640   0.485  2.3577 -2.2638 -1.8134
  913EMI    H1'17339   5.495   5.803   0.445 -0.6151 -1.2249  1.8284
  913EMI    H1'17340   5.378   5.670   0.397  1.5946  1.3854  0.3659
  913EMI    C1"17341   5.662   5.557  -0.021  0.0019 -0.0254 -0.5888
  913EMI    H1"17342   5.741   5.611  -0.067 -1.0738  1.3540 -2.6973
  913EMI    H1"17343   5.572   5.568  -0.085 -0.6048 -1.1876  0.2136
  913EMI    C2"17344   5.689   5.411   0.003  0.3904 -0.7511  0.1166
  913EMI    H2"17345   5.596   5.366  -0.001 -0.6787  3.4142 -1.3421
  913EMI    H2"17346   5.758   5.376  -0.075 -1.8947 -0.0718  0.3950
  913EMI    H2"17347   5.740   5.399   0.100  0.1686 -1.3713 -0.7043
  914EMI     N117348   0.100   5.721   5.788 -0.2527  0.0043  0.4555
  914EMI     C217349   0.200   5.641   5.826  0.0522  0.4552  0.2500
  914EMI     N317350   0.172   5.586   5.944  0.7595 -0.1526  0.2464
  914EMI     C417351   0.050   5.631   5.984 -0.1869  0.3047 -0.2632
  914EMI     C517352   0.005   5.715   5.892 -0.1787  0.3895  0.5264
  914EMI     H217353   0.290   5.633   5.759  1.4158  0.6802 -0.5688
  914EMI     H417354  -0.001   5.593   6.069 -0.2453 -2.0624  0.2657
  914EMI     H517355  -0.086   5.778   5.899 -0.3094 -0.2456 -0.7979
  914EMI    C1'17356   0.239   5.482   6.025 -0.6773  0.0309  0.4203
  914EMI    H1'17357   0.272   5.525   6.122 -0.6076 -0.1516 -0.8339
  914EMI    H1'17358   0.177   5.395   6.041  4.4153 -1.6840  2.2650
  914EMI    H1'17359   0.333   5.451   5.970  2.2442  0.0732 -1.5926
  914EMI    C1"17360   0.072   5.797   5.668 -0.1917 -0.7777 -0.0408
  914EMI    H1"17361   0.160   5.804   5.602  1.7770 -0.3763 -2.1303
  914EMI    H1"17362   0.034   5.897   5.695 -0.6079 -0.8693 -2.9462
  914EMI    C2"17363  -0.036   5.725   5.593  1.1830 -0.8073  0.1598
  914EMI    H2"17364  -0.013   5.623   5.556 -1.5822  1.2610 -0.9777
  914EMI    H2"17365  -0.127   5.712   5.652  0.4108  1.9058 -2.0515
  914EMI    H2"17366  -0.061   5.777   5.498 -0.9971  0.4797 -2.1717
  915EMI     N117367   5.226   0.715   2.371 -0.2267 -0.5895 -0.0037
  915EMI     C217368   5.281   0.621   2.292 -0.3197  0.6423  0.0291
  915EMI     N317369   5.231   0.503   2.326 -0.4102 -0.4993 -0.3417
  915EMI     C417370   5.133   0.524   2.422  0.0656 -0.2416  0.6651
  915EMI     C517371   5.129   0.656   2.453  0.3092  0.3990  0.8519
  915EMI     H217372   5.365   0.647   2.226  1.7905  1.4829  0.9397
  915EMI     H417373   5.067   0.447   2.471 -0.5702 -1.1224 -1.6270
  915EMI     H517374   5.067   0.710   2.522  0.2469  1.7278  0.0917
  915EMI    C1'17375   5.261   0.371   2.278  0.7149 -0.0346 -0.5451
  915EMI    H1'17376   5.196   0.352   2.190  0.1723  1.9539  0.6876
  915EMI    H1'17377   5.365   0.371   2.238 -0.1037  2.3771 -0.3032
  915EMI    H1'17378   5.250   0.295   2.359 -0.4657 -2.4315  1.4923
  915EMI    C1"17379   5.237   0.863   2.370  0.8330  0.1019 -0.0247
  915EMI    H1"17380   5.148   0.906   2.412 -1.5870 -1.0449  1.3289
  915EMI    H1"17381   5.254   0.905   2.265  0.0833  0.3286  0.9206
  915EMI    C2"17382   5.346   0.902   2.470  0.0429 -0.1204 -0.4208
  915EMI    H2"17383   5.307   0.890   2.576  2.5503  0.1966  0.9800
  915EMI    H2"17384   5.435   0.848   2.444 -1.0307  0.9652  4.0214
  915EMI    H2"17385   5.368   1.006   2.472 -0.7990 -1.2583 -0.9273
  916EMI     N117386   0.354   2.246   4.690 -0.8685  0.3074 -0.6344
  916EMI     C217387   0.321   2.120   4.672 -0.2901  0.7580  0.1942
  916EMI     N317388   0.254   2.063   4.772  0.1165 -0.6124 -0.2889
  916EMI     C417389   0.255   2.158   4.872  0.3644 -0.5304 -0.6094
  916EMI     C517390   0.322   2.265   4.821 -0.4043  0.4231 -0.3351
  916EMI     H217391   0.339   2.066   4.577 -1.4565 -0.5616 -2.1730
  916EMI     H417392   0.204   2.164   4.966  0.4359  1.4885 -2.1406
  916EMI     H517393   0.330   2.363   4.873 -0.3944 -1.0854  1.0780
  916EMI    C1'17394   0.199   1.930   4.786 -0.0237  0.1634  0.4352
  916EMI    H1'17395   0.173   1.912   4.892  1.7109  1.0129 -0.7000
  916EMI    H1'17396   0.120   1.911   4.711 -0.8351 -1.1552  1.9023
  916EMI    H1'17397   0.284   1.864   4.777  1.5518  2.3244 -1.1419
  916EMI    C1"17398   0.421   2.342   4.602 -0.3388 -0.2601  0.1323
  916EMI    H1"17399   0.448   2.294   4.507  2.9668 -0.1095  0.7855
  916EMI    H1"17400   0.518   2.359   4.645 -0.1930 -1.6535 -0.7839
  916EMI    C2"17401   0.339   2.467   4.585 -0.2036  0.2770 -0.2906
  916EMI    H2"17402   0.327   2.522   4.670  0.8879 -1.7693 -2.9932
  916EMI    H2"17403   0.395   2.523   4.509  0.0090  1.1574 -1.1212
  916EMI    H2"17404   0.243   2.445   4.550  2.1577  3.4805 -2.5583
  917EMI     N117405   3.858   5.522   3.260 -0.0755  0.5543 -0.1529
  917EMI     C217406   3.887   5.648   3.295 -0.4974 -0.3570  0.1588
  917EMI     N317407   3.918   5.722   3.185  0.2678 -1.3281  0.1098
  917EMI     C417408   3.907   5.639   3.077  0.6012 -0.2322 -0.0656
  917EMI     C517409   3.877   5.515   3.122  0.0007  0.3612  0.5998
  917EMI     H217410   3.891   5.677   3.399  1.7097  0.1682  2.1685
  917EMI     H417411   3.908   5.682   2.976 -0.9435  0.8959 -1.1664
  917EMI     H517412   3.861   5.423   3.058 -2.0816 -1.0033  0.3828
  917EMI    C1'17413   3.968   5.861   3.171  0.8738  0.5139 -0.7282
  917EMI    H1'17414   3.918   5.903   3.086  0.8870 -1.8172 -3.6082
  917EMI    H1'17415   3.934   5.917   3.257  0.3908  0.4413 -0.4447
  917EMI    H1'17416   4.077   5.866   3.169 -2.1828  0.3137 -0.9086
  917EMI    C1"17417   3.840   5.409   3.352  0.0487 -0.3517 -0.2318
  917EMI    H1"17418   3.762   5.332   3.325  0.3354  2.2030 -1.5554
  917EMI    H1"17419   3.805   5.452   3.446  2.1348  1.7058 -0.3669
  917EMI    C2"17420   3.972   5.339   3.383  0.6001 -0.4222 -0.1623
  917EMI    H2"17421   3.966   5.235   3.411  0.2525  1.1343 -2.9038
  917EMI    H2"17422   4.032   5.338   3.293 -0.4160  0.2903 -2.4122
  917EMI    H2"17423   4.030   5.399   3.456  0.5561 -1.7011  1.3757
  918EMI     N117424   0.987   5.947   0.824  0.2010  0.1116  0.1063
  918EMI     C217425   0.941   5.910   0.700  0.1687 -0.3087 -0.4538
  918EMI     N317426   0.938   6.021   0.625  1.2923 -0.2344  0.6307
  918EMI     C417427   0.980   6.125   0.704 -0.5216 -0.1903  0.7389
  918EMI     C517428   1.014   6.077   0.827  0.2835 -0.6132  0.1234
  918EMI     H217429   0.930   5.809   0.664 -1.5008 -0.5958 -1.4278
  918EMI     H417430   0.991   6.229   0.664 -4.4120  0.3677  0.7816
  918EMI     H517431   1.050   6.132   0.915  0.6395 -0.6037 -0.9652
  918EMI    C1'17432   0.918   6.040   0.487  0.3324  0.3329  0.1921
  918EMI    H1'17433   0.931   5.947   0.428 -0.8599 -2.1640 -0.0419
  918EMI    H1'17434   0.811   6.074   0.468  0.5166  1.2566 -1.2052
  918EMI    H1'17435   0.972   6.122   0.448 -0.6782  0.9541 -2.3011
  918EMI    C1"17436   0.996   5.861   0.943  0.4081 -0.6639  0.1875
  918EMI    H1"17437   0.965   5.918   1.025 -0.4129 -0.2770 -1.2227
  918EMI    H1"17438   1.104   5.841   0.964 -1.9936  0.1289 -1.9580
  918EMI    C2"17439   0.911   5.729   0.934 -0.1138 -0.5086 -0.3362
  918EMI    H2"17440   0.811   5.744   0.908  0.5266  1.9361  0.1529
  918EMI    H2"17441   0.961   5.658   0.862  0.4302  0.1467 -2.4440
  918EMI    H2"17442   0.915   5.686   1.032  1.1351 -1.3291 -2.6374
  919EMI     N117443   4.617   0.270   4.120  0.2190 -0.4469  0.2491
  919EMI     C217444   4.569   0.238   4.245  0.2774  0.3949  0.4867
  919EMI     N317445   4.528   0.104   4.244 -0.4834 -0.2674 -0.1598
  919EMI     C417446   4.549   0.057   4.120 -0.4425  0.3687  1.0159
  919EMI     C517447   4.595   0.155   4.048 -0.1537 -0.3073  0.3291
  919EMI     H217448   4.566   0.312   4.319  1.1548 -1.0322 -2.2148
  919EMI     H417449   4.530  -0.037   4.065  1.1714 -0.8738 -1.3209
  919EMI     H517450   4.629   0.137   3.948 -0.8881 -0.4602 -1.3684
  919EMI    C1'17451   4.469   0.015   4.350 -0.0838 -0.2134 -0.5164
  919EMI    H1'17452   4.551  -0.010   4.421 -1.3893 -0.5249  1.5465
  919EMI    H1'17453   4.390   0.071   4.396  0.7639 -0.8784  0.7323
  919EMI    H1'17454   4.436  -0.082   4.303 -0.7555  0.9201 -1.1632
  919EMI    C1"17455   4.679   0.396   4.082  0.7821 -0.4503  0.3879
  919EMI    H1"17456   4.692   0.455   4.171 -2.2421 -2.0143  3.0061
  919EMI    H1"17457   4.619   0.453   4.012  0.6508 -0.1578 -1.0382
  919EMI    C2"17458   4.805   0.382   4.004 -0.2346  0.8155  0.5324
  919EMI    H2"17459   4.845   0.476   3.974 -0.8646 -0.4213 -0.5766
  919EMI    H2"17460   4.888   0.334   4.064  0.6295 -1.3996 -0.0887
  919EMI    H2"17461   4.789   0.312   3.920  2.9398  0.4914 -2.0825
  920EMI     N117462   2.237   5.602   2.879 -0.2395  0.6511 -0.4163
  920EMI     C217463   2.288   5.727   2.849  0.2414 -0.5590  0.3293
  920EMI     N317464   2.294   5.748   2.716  0.4707  0.0760  0.0110
  920EMI     C417465   2.243   5.634   2.662 -0.0246  0.8861  0.3640
  920EMI     C517466   2.205   5.547   2.756 -0.3210  0.6144  0.4081
  920EMI     H217467   2.321   5.802   2.915 -0.6406 -2.0610 -0.4837
  920EMI     H417468   2.226   5.607   2.558 -0.0050  3.1030 -1.0704
  920EMI     H517469   2.168   5.444   2.743 -0.6853 -1.4052  1.2496
  920EMI    C1'17470   2.343   5.859   2.637 -0.0082 -0.4365 -0.6722
  920EMI    H1'17471   2.290   5.864   2.547  4.1333  0.5290 -3.2319
  920EMI    H1'17472   2.325   5.946   2.701 -0.9834  2.1512 -1.4336
  920EMI    H1'17473   2.445   5.840   2.603 -0.5106  2.3634 -2.2470
  920EMI    C1"17474   2.209   5.527   3.010 -0.2952 -0.6052 -0.2643
  920EMI    H1"17475   2.277   5.444   3.013  1.8691  1.0302  0.5006
  920EMI    H1"17476   2.114   5.482   3.016  3.9794  0.8071  1.8360
  920EMI    C2"17477   2.227   5.602   3.141 -0.1303 -0.1270  0.1127
  920EMI    H2"17478   2.183   5.548   3.228  1.9098  0.0330 -1.0204
  920EMI    H2"17479   2.332   5.623   3.153 -1.4470 -0.0603 -1.4077
  920EMI    H2"17480   2.176   5.699   3.136  1.6406 -1.5970  2.1979
  921EMI     N117481   4.375   0.274   4.880  0.3461 -0.0016 -1.1448
  921EMI     C217482   4.273   0.231   4.956 -1.2010 -0.5578  0.0806
  921EMI     N317483   4.153   0.271   4.910 -0.1363  0.1048  0.3002
  921EMI     C417484   4.177   0.344   4.798 -0.1945  0.0685  0.2107
  921EMI     C517485   4.310   0.348   4.778  0.2643  0.4385  0.4329
  921EMI     H217486   4.285   0.172   5.049  1.6171 -1.2463  0.1281
  921EMI     H417487   4.105   0.382   4.729  3.8304 -0.9894 -1.8937
  921EMI     H517488   4.359   0.392   4.695 -2.9995 -1.5858 -3.0979
  921EMI    C1'17489   4.018   0.260   4.974 -0.0294  0.1271 -0.3776
  921EMI    H1'17490   4.026   0.263   5.081  2.1472  0.2587 -0.9050
  921EMI    H1'17491   3.958   0.343   4.943 -2.2011  0.2389  0.3107
  921EMI    H1'17492   3.979   0.160   4.952 -1.1765 -1.5437  0.5092
  921EMI    C1"17493   4.517   0.264   4.884 -0.2866 -0.0182 -0.3256
  921EMI    H1"17494   4.553   0.247   4.985 -1.4180 -0.0882  0.7323
  921EMI    H1"17495   4.559   0.351   4.846  1.4485 -5.7677  0.8927
  921EMI    C2"17496   4.564   0.137   4.809 -0.0566 -0.4014  0.3657
  921EMI    H2"17497   4.672   0.129   4.807  0.9793  3.9644 -2.8982
  921EMI    H2"17498   4.532   0.049   4.864 -1.6439 -1.2852 -0.0402
  921EMI    H2"17499   4.525   0.135   4.712  0.2825  1.7080  0.6685
  922EMI     N117500   1.023   3.015   1.558 -0.0720  0.8843 -0.2291
  922EMI     C217501   1.106   2.921   1.508  0.1329 -0.0201 -0.0072
  922EMI     N317502   1.064   2.864   1.395 -0.8107  0.1703  0.7090
  922EMI     C417503   0.946   2.934   1.374  0.7875  0.7255  0.0980
  922EMI     C517504   0.920   3.022   1.471  0.3698  0.3770  0.2903
  922EMI     H217505   1.200   2.896   1.548  0.6462  1.3356  0.5066
  922EMI     H417506   0.880   2.907   1.296  0.6221 -1.9445 -0.1329
  922EMI     H517507   0.831   3.080   1.488  1.3942  0.2470  0.6016
  922EMI    C1'17508   1.131   2.766   1.309 -0.0945 -0.1663  0.3937
  922EMI    H1'17509   1.094   2.782   1.206 -1.4349  2.8397 -2.9004
  922EMI    H1'17510   1.239   2.772   1.315 -2.0474 -2.1381 -1.8953
  922EMI    H1'17511   1.097   2.671   1.352  0.1527  2.6315  0.2098
  922EMI    C1"17512   1.034   3.107   1.674  0.0582 -0.1470 -0.5678
  922EMI    H1"17513   0.990   3.202   1.660 -1.1540  1.1362  1.6597
  922EMI    H1"17514   1.138   3.117   1.692  2.5242  0.8289  0.4162
  922EMI    C2"17515   0.957   3.058   1.803 -0.0660  0.1456 -0.2147
  922EMI    H2"17516   0.984   3.113   1.888 -0.3948  1.2759 -1.0832
  922EMI    H2"17517   0.850   3.068   1.789  1.9092  1.1594 -0.4052
  922EMI    H2"17518   0.986   2.958   1.818  0.5178  3.4001 -1.7189
  923EMI     N117519   1.089   3.929   6.161  0.1980 -0.8363  0.2155
  923EMI     C217520   0.990   3.832   6.160 -0.9046  0.4176 -0.3976
  923EMI     N317521   1.001   3.757   6.274  0.5946  0.4195  0.4097
  923EMI     C417522   1.102   3.809   6.347  0.1648 -0.5431  0.2803
  923EMI     C517523   1.154   3.911   6.284  0.3710  0.5790  0.3821
  923EMI     H217524   0.902   3.825   6.100  0.2845  2.5451 -1.2865
  923EMI     H417525   1.137   3.782   6.443  0.9294  0.2613 -0.2004
  923EMI     H517526   1.236   3.966   6.319 -3.1727 -1.3337 -1.0903
  923EMI    C1'17527   0.911   3.638   6.318  0.8299 -0.2008  0.2121
  923EMI    H1'17528   0.841   3.658   6.400 -2.4956  0.4036  0.8548
  923EMI    H1'17529   0.863   3.612   6.230  1.3422  3.4740  0.9162
  923EMI    H1'17530   0.974   3.556   6.341  2.0946 -0.4482 -1.6086
  923EMI    C1"17531   1.133   4.026   6.061  0.0858  0.1898 -1.0542
  923EMI    H1"17532   1.165   3.967   5.970 -1.6224  2.7410 -1.8032
  923EMI    H1"17533   1.217   4.085   6.099 -1.6621 -1.5665  0.2298
  923EMI    C2"17534   1.015   4.117   6.018 -0.5579  0.0739 -0.1688
  923EMI    H2"17535   0.929   4.059   5.983 -0.6618 -1.5664 -2.5469
  923EMI    H2"17536   0.999   4.173   6.108 -0.2083 -1.3039  1.3811
  923EMI    H2"17537   1.050   4.176   5.935  0.6613  0.3743  0.6929
  924EMI     N117538   3.518   4.316   3.181 -0.6181 -0.0077  0.5000
  924EMI     C217539   3.636   4.255   3.172  0.1332  0.7077 -0.2844
  924EMI     N317540   3.667   4.232   3.045  0.5395  0.3527 -0.4425
  924EMI     C417541   3.561   4.285   2.970 -0.4857  0.1132  1.0319
  924EMI     C517542   3.468   4.327   3.055  0.2420  0.0636  0.4155
  924EMI     H217543   3.695   4.227   3.255 -0.9272  1.4062  1.1233
  924EMI     H417544   3.549   4.286   2.861  0.9334 -1.7838 -0.5563
  924EMI     H517545   3.376   4.379   3.023 -1.2460 -1.8898  0.2618
  924EMI    C1'17546   3.770   4.143   2.994 -0.8835  0.2996 -0.2553
  924EMI    H1'17547   3.745   4.098   2.898 -0.4532  1.7267 -0.1460
  924EMI    H1'17548   3.850   4.201   2.959 -1.2779  0.2859 -1.3189
  924EMI    H1'17549   3.803   4.073   3.078 -0.6716  1.9445  0.4633
  924EMI    C1"17550   3.446   4.358   3.304 -0.5453  0.1950  0.5279
  924EMI    H1"17551   3.401   4.272   3.344  2.9685  0.6490 -1.1107
  924EMI    H1"17552   3.355   4.413   3.282  2.1232  2.4847  1.4247
  924EMI    C2"17553   3.530   4.432   3.406 -0.1277 -0.2145  0.4387
  924EMI    H2"17554   3.543   4.536   3.359  1.0724 -0.0601 -1.6688
  924EMI    H2"17555   3.466   4.458   3.488  1.0034  1.0601 -0.4207
  924EMI    H2"17556   3.627   4.392   3.437 -0.7914  0.7961  1.9861
  925EMI     N117557   5.254   1.548   2.194 -0.3539  0.0267  0.6840
  925EMI     C217558   5.354   1.643   2.172 -0.0508 -0.0033  0.4121
  925EMI     N317559   5.429   1.614   2.070  0.2519  0.7021  0.1015
  925EMI     C417560   5.375   1.503   2.015 -0.0963 -0.2728  0.0530
  925EMI     C517561   5.271   1.463   2.088 -0.0114 -0.1335 -0.0839
  925EMI     H217562   5.375   1.721   2.236  1.0158  0.1918 -4.7624
  925EMI     H417563   5.407   1.462   1.925 -2.6232 -2.4133  1.0694
  925EMI     H517564   5.228   1.367   2.058 -1.5565  0.2366 -0.2056
  925EMI    C1'17565   5.545   1.677   2.013  0.2415 -0.5771 -0.4164
  925EMI    H1'17566   5.627   1.651   2.081 -1.6338 -2.2857  0.9917
  925EMI    H1'17567   5.548   1.630   1.912 -1.5079 -0.5062  0.8717
  925EMI    H1'17568   5.520   1.784   2.003 -1.1694  0.3644  0.0857
  925EMI    C1"17569   5.170   1.509   2.313  0.3794 -0.6545  0.1488
  925EMI    H1"17570   5.217   1.426   2.366 -0.0373  0.2777  0.5411
  925EMI    H1"17571   5.077   1.468   2.272  1.0386 -1.2326 -1.5305
  925EMI    C2"17572   5.147   1.617   2.421 -0.2926 -0.7989 -0.9298
  925EMI    H2"17573   5.099   1.582   2.515  1.2566 -1.7356  0.2414
  925EMI    H2"17574   5.244   1.655   2.459  0.0954 -1.5792 -0.2925
  925EMI    H2"17575   5.095   1.700   2.373  0.2563 -1.5066 -2.3443
  926EMI     N117576   3.262   3.875   2.648  0.6039 -0.3299 -0.1660
  926EMI     C217577   3.258   3.977   2.566 -0.3836  0.0977 -1.0739
  926EMI     N317578   3.135   4.027   2.540 -0.0134  0.4886 -0.1024
  926EMI     C417579   3.053   3.937   2.611  0.4102  0.2295 -0.1509
  926EMI     C517580   3.129   3.840   2.662 -0.1688 -0.3332  0.3576
  926EMI     H217581   3.353   4.022   2.527 -2.3440  1.2755  0.8585
  926EMI     H417582   2.945   3.928   2.615  0.6353 -0.3599 -1.3766
  926EMI     H517583   3.082   3.765   2.722 -0.2045  1.9586  0.5602
  926EMI    C1'17584   3.086   4.127   2.455 -0.3737 -0.1508 -0.5614
  926EMI    H1'17585   3.167   4.180   2.405 -1.6830 -0.5169 -1.9763
  926EMI    H1'17586   3.016   4.071   2.385 -2.4470 -1.3629 -1.0808
  926EMI    H1'17587   3.024   4.193   2.523 -2.4182  1.1750 -0.5143
  926EMI    C1"17588   3.375   3.797   2.710  0.1137  0.0355 -0.2846
  926EMI    H1"17589   3.443   3.762   2.639 -1.3958 -1.5117  2.5170
  926EMI    H1"17590   3.332   3.716   2.764 -0.6392  1.0761 -0.5706
  926EMI    C2"17591   3.450   3.894   2.804  0.1008 -0.4953  0.4784
  926EMI    H2"17592   3.527   3.831   2.857  1.6975 -2.1386  1.4372
  926EMI    H2"17593   3.493   3.972   2.749  2.0575 -0.8619  1.4175
  926EMI    H2"17594   3.390   3.939   2.877  0.8455  0.9818  0.1338
  927EMI     N117595   0.193   5.292   0.523  0.3014  0.2101  0.1621
  927EMI     C217596   0.292   5.354   0.576 -0.7998 -0.3378  0.3454
  927EMI     N317597   0.409   5.316   0.521  0.0326 -0.0146 -0.3727
  927EMI     C417598   0.387   5.214   0.433  0.1324  0.0784 -0.0147
  927EMI     C517599   0.252   5.204   0.430 -0.7061  0.4039  0.4316
  927EMI     H217600   0.284   5.435   0.641 -3.1344 -1.6849  1.7796
  927EMI     H417601   0.458   5.158   0.373 -1.4437 -0.9894 -1.3515
  927EMI     H517602   0.193   5.126   0.377  0.1370 -1.2977 -2.6237
  927EMI    C1'17603   0.545   5.352   0.557 -0.4973  0.0811 -0.4808
  927EMI    H1'17604   0.563   5.331   0.660 -1.0978 -1.0121 -0.8859
  927EMI    H1'17605   0.613   5.288   0.512 -0.7896  0.2033  0.7960
  927EMI    H1'17606   0.562   5.458   0.530 -0.2927  0.1252 -1.9406
  927EMI    C1"17607   0.045   5.315   0.521 -0.2178 -0.5209  0.3369
  927EMI    H1"17608   0.017   5.342   0.422 -1.1747  1.5688  0.0840
  927EMI    H1"17609   0.025   5.406   0.582 -1.4315 -1.3377  1.4124
  927EMI    C2"17610  -0.032   5.189   0.567  0.8725 -0.3080 -0.1457
  927EMI    H2"17611  -0.028   5.190   0.672 -0.6044  0.2837 -1.6289
  927EMI    H2"17612  -0.136   5.203   0.535 -1.6973 -0.6266  2.0763
  927EMI    H2"17613   0.010   5.093   0.530 -1.4466 -1.3640  1.2498
  928EMI     N117614   2.064   0.527   3.915  0.1516  0.0477 -0.1116
  928EMI     C217615   2.138   0.560   3.811 -0.4290 -0.6671  0.1176
  928EMI     N317616   2.104   0.684   3.772 -0.1280  0.5102 -0.5939
  928EMI     C417617   1.997   0.716   3.853 -0.4708  0.0551 -0.4547
  928EMI     C517618   1.970   0.624   3.939  0.0921 -0.0888  0.6526
  928EMI     H217619   2.190   0.491   3.753 -0.9266  1.6076  1.0381
  928EMI     H417620   1.944   0.812   3.845  0.5417  0.9417 -0.1913
  928EMI     H517621   1.896   0.632   4.025 -0.5193  0.3566  0.3052
  928EMI    C1'17622   2.133   0.758   3.652  0.3071 -0.2123 -0.3715
  928EMI    H1'17623   2.136   0.864   3.669  0.1506 -2.1601 -0.2426
  928EMI    H1'17624   2.237   0.722   3.639 -1.0845  1.1624 -2.2382
  928EMI    H1'17625   2.077   0.730   3.563  3.2416  0.7578 -0.7950
  928EMI    C1"17626   2.073   0.401   4.000  0.0032 -0.6906  0.2925
  928EMI    H1"17627   1.969   0.375   4.014 -1.2557 -0.8546 -1.1555
  928EMI    H1"17628   2.115   0.408   4.107  0.7087 -0.9795  0.8137
  928EMI    C2"17629   2.154   0.294   3.926  0.0656  0.2593  0.0707
  928EMI    H2"17630   2.266   0.314   3.938  1.3732 -0.0664 -1.4013
  928EMI    H2"17631   2.140   0.192   3.970  0.7967 -0.7678  0.6209
  928EMI    H2"17632   2.127   0.290   3.822  0.3601  1.8699  0.9839
  929EMI     N117633   5.360   4.229   3.049  0.4135 -0.2645  0.3613
  929EMI     C217634   5.452   4.150   3.101  0.1121 -0.0424 -0.1891
  929EMI     N317635   5.532   4.103   3.007 -0.2839  0.2984 -0.5752
  929EMI     C417636   5.496   4.153   2.888  0.1352 -0.4916 -0.1184
  929EMI     C517637   5.390   4.235   2.911 -0.2789  0.0372 -0.3554
  929EMI     H217638   5.469   4.129   3.206 -0.8576  0.7913  1.9853
  929EMI     H417639   5.548   4.119   2.803 -4.2652 -2.0478  3.9367
  929EMI     H517640   5.332   4.296   2.842  0.4197 -0.5221  0.2961
  929EMI    C1'17641   5.646   4.013   3.013  0.3517  0.3589 -0.0089
  929EMI    H1'17642   5.654   3.970   2.917  2.9473  1.0815 -1.0996
  929EMI    H1'17643   5.741   4.069   3.037 -0.1937 -2.2070  1.5020
  929EMI    H1'17644   5.636   3.944   3.090  1.4344 -0.2274 -1.5799
  929EMI    C1"17645   5.236   4.290   3.106  0.3491 -0.6754 -0.8165
  929EMI    H1"17646   5.193   4.215   3.168 -1.1172  2.8492  1.0040
  929EMI    H1"17647   5.168   4.327   3.023 -1.5311 -1.4447 -0.3517
  929EMI    C2"17648   5.257   4.413   3.202 -0.4838  0.5310  0.4207
  929EMI    H2"17649   5.341   4.385   3.263 -0.0891  2.6576  0.4544
  929EMI    H2"17650   5.275   4.506   3.145  0.2674 -0.4350 -0.5481
  929EMI    H2"17651   5.168   4.421   3.256 -0.5358 -3.0799  0.3970
  930EMI     N117652   4.194   4.518   6.212 -0.0865 -0.1868  0.0066
  930EMI     C217653   4.084   4.526   6.130  0.0696  0.1363 -0.3900
  930EMI     N317654   4.008   4.418   6.146  0.9065 -0.5732  0.4215
  930EMI     C417655   4.068   4.339   6.240 -0.4861  0.0441 -0.0733
  930EMI     C517656   4.181   4.404   6.281  0.2935 -0.3642  0.1668
  930EMI     H217657   4.069   4.592   6.053  0.1390  1.4825  2.0601
  930EMI     H417658   4.026   4.249   6.281 -1.5667  1.0622 -0.5470
  930EMI     H517659   4.243   4.370   6.358  0.2690  1.0084 -1.6197
  930EMI    C1'17660   3.884   4.383   6.078  0.1594 -0.1941 -0.5730
  930EMI    H1'17661   3.841   4.295   6.128 -3.8182 -1.3165  0.5042
  930EMI    H1'17662   3.821   4.468   6.071  1.9592 -0.4869 -1.1086
  930EMI    H1'17663   3.902   4.356   5.974  0.0120  0.6046 -0.5822
  930EMI    C1"17664   4.313   4.612   6.211 -0.2051  0.2196 -0.0382
  930EMI    H1"17665   4.405   4.555   6.218 -0.7001  0.6517 -2.7076
  930EMI    H1"17666   4.305   4.672   6.295 -0.4227  2.0722 -4.6153
  930EMI    C2"17667   4.322   4.708   6.089  0.5687 -0.1817 -0.6035
  930EMI    H2"17668   4.416   4.760   6.089  1.6981  0.1320  0.6701
  930EMI    H2"17669   4.316   4.656   5.990  0.8170  0.3116 -1.9297
  930EMI    H2"17670   4.239   4.773   6.084  2.4557 -2.3282 -1.9147
  931EMI     N117671   5.847   5.966   4.703 -0.2633  0.3025 -0.3747
  931EMI     C217672   5.838   6.091   4.743 -0.3576 -0.0559  0.1877
  931EMI     N317673   5.707   6.123   4.760 -0.3480 -0.6672  0.0776
  931EMI     C417674   5.630   6.011   4.733 -0.4648 -0.0708  0.2433
  931EMI     C517675   5.717   5.915   4.702 -0.4118  0.4032 -0.3609
  931EMI     H217676   5.927   6.156   4.762  0.8596  0.0313 -0.9615
  931EMI     H417677   5.521   6.003   4.722 -0.4095  0.5597  1.0040
  931EMI     H517678   5.688   5.820   4.665  1.5767  1.1896  0.0465
  931EMI    C1'17679   5.637   6.252   4.782  0.2692 -0.0729 -0.6890
  931EMI    H1'17680   5.705   6.337   4.749  0.6443  0.8958 -0.5159
  931EMI    H1'17681   5.563   6.246   4.701  0.2711  0.4547 -1.7255
  931EMI    H1'17682   5.594   6.269   4.881  3.2953 -0.2087 -1.5299
  931EMI    C1"17683   5.967   5.881   4.679 -0.3220 -0.4667  0.5076
  931EMI    H1"17684   5.939   5.787   4.691  2.2435  2.5239 -0.1689
  931EMI    H1"17685   6.047   5.898   4.752  0.9736  0.8448  0.1778
  931EMI    C2"17686   6.030   5.901   4.533  0.2816  0.1928 -0.1673
  931EMI    H2"17687   6.116   5.840   4.530  2.1041 -1.1977  4.6749
  931EMI    H2"17688   5.961   5.869   4.458 -2.2659  1.3681  0.3177
  931EMI    H2"17689   6.055   6.007   4.524  1.0093  1.8357  0.0028
  932EMI     N117690   2.467   3.038   0.777  0.1100 -0.9167 -0.2320
  932EMI     C217691   2.382   2.932   0.757  0.0919 -0.0928 -0.9761
  932EMI     N317692   2.448   2.813   0.740  0.5147  0.4707 -0.2224
  932EMI     C417693   2.582   2.849   0.742 -0.3709 -0.3547  0.5340
  932EMI     C517694   2.594   2.982   0.764  0.6710 -0.3603  0.4803
  932EMI     H217695   2.273   2.942   0.761 -0.0992  2.9714 -0.0371
  932EMI     H417696   2.664   2.784   0.717  0.7298 -1.1879  0.0019
  932EMI     H517697   2.687   3.040   0.760 -0.9672 -2.8839 -1.6906
  932EMI    C1'17698   2.410   2.682   0.693  0.0350  0.1248  0.2875
  932EMI    H1'17699   2.428   2.686   0.584  1.2539  3.4943  0.1843
  932EMI    H1'17700   2.470   2.597   0.732  0.4555  0.2182 -0.0673
  932EMI    H1'17701   2.307   2.653   0.713  1.9616  0.6265  2.6449
  932EMI    C1"17702   2.450   3.177   0.812 -0.2054 -0.0695 -0.6174
  932EMI    H1"17703   2.345   3.190   0.811  2.6231 -0.0302  5.3536
  932EMI    H1"17704   2.504   3.239   0.741 -0.7317  0.0478  1.4555
  932EMI    C2"17705   2.495   3.207   0.956  0.5102 -1.0610 -0.4118
  932EMI    H2"17706   2.497   3.315   0.968 -0.1496 -2.0772 -0.5428
  932EMI    H2"17707   2.434   3.161   1.035  1.4197 -2.6082  0.8390
  932EMI    H2"17708   2.595   3.168   0.982 -1.3678 -2.6649  2.2811
  933EMI     N117709   1.813   2.686   0.831  0.1744 -0.1237  0.0303
  933EMI     C217710   1.724   2.606   0.900 -0.5707 -0.2278  0.0832
  933EMI     N317711   1.783   2.487   0.941  0.3719 -0.0735  0.4630
  933EMI     C417712   1.913   2.493   0.889 -0.4071  0.5721  0.1578
  933EMI     C517713   1.934   2.613   0.818 -0.4496 -0.0786 -0.2141
  933EMI     H217714   1.621   2.636   0.910 -1.4962  0.6212 -1.6555
  933EMI     H417715   1.983   2.411   0.907  2.2631  0.9979  1.9253
  933EMI     H517716   2.017   2.647   0.752  3.3139 -0.2633 -0.0330
  933EMI    C1'17717   1.734   2.383   1.037 -0.1860 -0.4313 -0.5392
  933EMI    H1'17718   1.668   2.424   1.114  0.1152  0.0493  0.2433
  933EMI    H1'17719   1.674   2.309   0.981 -1.9169  1.2272 -0.3892
  933EMI    H1'17720   1.821   2.339   1.077  0.6412  0.6469  1.9000
  933EMI    C1"17721   1.787   2.816   0.765 -0.0277 -0.8582 -0.7749
  933EMI    H1"17722   1.882   2.872   0.744  0.1639  1.1573 -1.4327
  933EMI    H1"17723   1.726   2.884   0.833 -0.5675 -0.1297  2.3321
  933EMI    C2"17724   1.718   2.796   0.632  0.4298 -0.2581  0.3542
  933EMI    H2"17725   1.625   2.753   0.658  0.1789 -1.8188 -1.4358
  933EMI    H2"17726   1.697   2.892   0.585 -0.5656  0.9633  1.3524
  933EMI    H2"17727   1.769   2.720   0.575  0.3176 -1.2707  1.7610
  934EMI     N117728   4.939   1.498   5.009 -0.0405 -0.4360  0.4532
  934EMI     C217729   4.954   1.461   4.882 -0.1439 -0.4302 -0.7917
  934EMI     N317730   5.070   1.396   4.868  0.0478  0.1498  0.5244
  934EMI     C417731   5.142   1.413   4.985 -0.0486  0.6365  0.3616
  934EMI     C517732   5.062   1.471   5.071 -0.6929 -0.5569  0.0408
  934EMI     H217733   4.887   1.456   4.794  1.3093  0.7022  0.2278
  934EMI     H417734   5.240   1.372   5.007 -0.2488 -1.6266 -0.8037
  934EMI     H517735   5.082   1.487   5.179 -0.4374  2.3485  1.0089
  934EMI    C1'17736   5.119   1.316   4.754 -0.5720 -0.8194 -0.4932
  934EMI    H1'17737   5.184   1.240   4.792 -0.3610  1.8117 -1.2326
  934EMI    H1'17738   5.042   1.253   4.716  1.4364  0.6933  1.4938
  934EMI    H1'17739   5.169   1.377   4.673  1.1863  0.0558 -0.0105
  934EMI    C1"17740   4.829   1.555   5.087 -0.1472 -1.1167  0.0416
  934EMI    H1"17741   4.867   1.641   5.133 -0.6295  1.1369 -1.5639
  934EMI    H1"17742   4.796   1.488   5.167  0.0697 -0.0441 -0.4646
  934EMI    C2"17743   4.713   1.599   4.997 -0.8937  0.0030  0.0580
  934EMI    H2"17744   4.746   1.638   4.899 -0.9170 -3.3269  1.4423
  934EMI    H2"17745   4.641   1.520   4.973  0.5901  2.5801 -0.0522
  934EMI    H2"17746   4.656   1.673   5.053 -2.0708  0.9288 -0.3012
  935EMI     N117747   2.371   3.744   0.586 -0.6387  0.5111  0.3075
  935EMI     C217748   2.455   3.677   0.512  0.0568  0.4933  0.0642
  935EMI     N317749   2.566   3.644   0.584 -0.0175  0.3672 -0.2251
  935EMI     C417750   2.547   3.688   0.716  0.6466  0.3268  0.5001
  935EMI     C517751   2.430   3.758   0.715 -0.0306  0.2864  0.1654
  935EMI     H217752   2.438   3.656   0.400 -2.2665 -2.3797 -1.6138
  935EMI     H417753   2.619   3.667   0.795 -1.1489  0.9640 -1.0219
  935EMI     H517754   2.385   3.795   0.810  3.0350 -0.1960 -0.4174
  935EMI    C1'17755   2.686   3.582   0.539 -0.5668  0.5989  0.0957
  935EMI    H1'17756   2.757   3.656   0.500  0.5425  0.0914 -2.5451
  935EMI    H1'17757   2.718   3.512   0.611  2.1747  1.4549 -3.1629
  935EMI    H1'17758   2.665   3.528   0.453  2.2379  2.9006 -0.0079
  935EMI    C1"17759   2.242   3.804   0.556  0.0511  0.5218 -0.3635
  935EMI    H1"17760   2.218   3.850   0.648 -2.7843 -0.9711 -2.3916
  935EMI    H1"17761   2.181   3.718   0.535 -0.4237 -1.7959  0.6789
  935EMI    C2"17762   2.243   3.905   0.445  0.8800  0.4316 -0.1380
  935EMI    H2"17763   2.146   3.951   0.451  0.3009 -2.3168 -1.1735
  935EMI    H2"17764   2.332   3.967   0.445 -0.1701 -1.8231  1.7551
  935EMI    H2"17765   2.241   3.848   0.353  0.9053  2.6100 -0.0934
  936EMI     N117766   1.113   2.577   4.590 -0.5306 -0.0836 -0.0556
  936EMI     C217767   1.233   2.605   4.641  0.5489  0.9137 -0.8294
  936EMI     N317768   1.306   2.493   4.637 -0.0975  0.7003 -0.3267
  936EMI     C417769   1.227   2.390   4.585 -0.5114  0.2232 -0.5932
  936EMI     C517770   1.108   2.444   4.559  0.5049 -0.5663 -0.4565
  936EMI     H217771   1.262   2.709   4.665  0.6912  0.4356 -1.0889
  936EMI     H417772   1.243   2.280   4.563  1.4208 -1.3987 -0.0709
  936EMI     H517773   1.022   2.389   4.524  0.4882 -0.3885 -1.3218
  936EMI    C1'17774   1.443   2.467   4.678 -0.2504 -0.5003  0.4450
  936EMI    H1'17775   1.476   2.409   4.591  0.5516  2.2134 -0.6470
  936EMI    H1'17776   1.500   2.567   4.679  2.6556  2.2201  0.5578
  936EMI    H1'17777   1.441   2.404   4.766 -0.9046 -1.1543 -3.9715
  936EMI    C1"17778   0.999   2.672   4.557 -0.0520 -0.0544 -0.1436
  936EMI    H1"17779   0.942   2.700   4.648 -0.3013  1.7207  2.9007
  936EMI    H1"17780   0.935   2.623   4.482  0.2030 -1.3538 -0.1038
  936EMI    C2"17781   1.052   2.804   4.497  0.0188  0.0833 -0.1004
  936EMI    H2"17782   1.134   2.847   4.561 -2.3926  2.0370 -0.6351
  936EMI    H2"17783   1.097   2.789   4.396  1.4402 -2.0271  1.3711
  936EMI    H2"17784   0.969   2.873   4.486 -0.0501 -2.1213  0.7281
  937EMI     N117785   4.985   6.183   3.413  0.3451 -0.7992  0.2092
  937EMI     C217786   4.851   6.186   3.414 -0.1388  0.5598 -0.4536
  937EMI     N317787   4.803   6.070   3.365 -0.6018  0.6335  0.0853
  937EMI     C417788   4.912   5.997   3.325 -0.1423 -0.6977 -0.2188
  937EMI     C517789   5.025   6.065   3.362 -0.7017  0.0081  0.0772
  937EMI     H217790   4.788   6.256   3.464  0.1392 -0.5058  2.0760
  937EMI     H417791   4.920   5.900   3.280 -0.8026  0.5251 -1.6749
  937EMI     H517792   5.128   6.036   3.333  1.5462 -0.9034 -0.7007
  937EMI    C1'17793   4.667   6.020   3.355 -0.1000  0.7558 -0.2679
  937EMI    H1'17794   4.672   5.910   3.348 -2.1397 -2.1142 -1.3710
  937EMI    H1'17795   4.612   6.047   3.447 -0.7916 -0.2002 -1.3731
  937EMI    H1'17796   4.622   6.057   3.266  3.5356 -0.0267  1.5350
  937EMI    C1"17797   5.085   6.279   3.455  0.9472 -1.0662  0.5596
  937EMI    H1"17798   5.165   6.262   3.384 -1.0851  1.1074  0.6418
  937EMI    H1"17799   5.108   6.268   3.560  1.8807  2.3898 -0.5326
  937EMI    C2"17800   5.028   6.423   3.442 -0.3663  0.1509 -0.0456
  937EMI    H2"17801   4.956   6.441   3.522  0.0561 -0.9062  1.4958
  937EMI    H2"17802   5.115   6.494   3.459  1.0432 -0.0077  0.6199
  937EMI    H2"17803   4.985   6.432   3.346  0.7575 -1.3233  1.6427
  938EMI     N117804   5.076   1.682   1.854 -1.1100  0.1042 -0.1562
  938EMI     C217805   5.040   1.553   1.828 -0.0633 -0.3424  0.0239
  938EMI     N317806   4.941   1.512   1.919 -0.3557  0.3620  0.7036
  938EMI     C417807   4.916   1.621   1.999 -1.0531  0.1680 -0.0990
  938EMI     C517808   5.006   1.720   1.966 -0.2394  0.2833 -0.1422
  938EMI     H217809   5.085   1.486   1.759 -0.3703  1.0085  0.7273
  938EMI     H417810   4.849   1.621   2.086 -1.0817 -0.1597 -0.6273
  938EMI     H517811   5.024   1.815   2.014  0.3046  1.1996 -1.6501
  938EMI    C1'17812   4.862   1.388   1.936 -0.0208  0.4755  0.5694
  938EMI    H1'17813   4.857   1.365   2.043 -0.5725  0.3996 -0.2703
  938EMI    H1'17814   4.765   1.403   1.895 -2.9504 -1.0750 -0.8233
  938EMI    H1'17815   4.915   1.299   1.888  0.7595  0.2386 -0.3651
  938EMI    C1"17816   5.191   1.764   1.794  0.5986 -0.5891  0.3277
  938EMI    H1"17817   5.210   1.724   1.693 -0.4708 -2.0325 -0.1948
  938EMI    H1"17818   5.286   1.749   1.842 -1.6690 -3.0814  2.2399
  938EMI    C2"17819   5.145   1.907   1.774 -0.5032  0.0394 -0.0542
  938EMI    H2"17820   5.119   1.941   1.871  0.7377 -2.2002 -0.0202
  938EMI    H2"17821   5.225   1.974   1.738  0.7176 -1.4906 -2.7054
  938EMI    H2"17822   5.061   1.899   1.706 -1.3161 -1.0510 -0.7232
  939EMI     N117823   5.200   4.428   3.765  0.5901 -0.0804 -0.0862
  939EMI     C217824   5.082   4.382   3.726  0.1531 -0.7584  0.4764
  939EMI     N317825   4.987   4.435   3.810 -0.1085  0.2977 -0.0860
  939EMI     C417826   5.056   4.508   3.905 -0.0080  0.1591 -0.2293
  939EMI     C517827   5.189   4.497   3.885 -0.3788 -0.1502  0.0263
  939EMI     H217828   5.068   4.322   3.636  2.9780 -0.3407 -0.7202
  939EMI     H417829   5.000   4.559   3.980  0.7396 -1.9603  1.0709
  939EMI     H517830   5.266   4.545   3.935 -1.2271 -0.5719 -3.8711
  939EMI    C1'17831   4.842   4.397   3.828 -0.1889  0.2839 -0.0618
  939EMI    H1'17832   4.786   4.409   3.728 -0.6204  1.9011 -2.0080
  939EMI    H1'17833   4.826   4.292   3.853 -1.5292 -1.1191 -0.5688
  939EMI    H1'17834   4.798   4.464   3.900  0.4371  0.8313 -1.0582
  939EMI    C1"17835   5.338   4.398   3.708  0.1264  0.1006  0.7792
  939EMI    H1"17836   5.350   4.289   3.696  0.7498 -0.8596 -1.9620
  939EMI    H1"17837   5.415   4.448   3.767  1.2317 -0.0948  2.8294
  939EMI    C2"17838   5.344   4.459   3.577 -0.2276 -0.4144 -0.2111
  939EMI    H2"17839   5.335   4.571   3.578  4.3223 -1.3225 -1.9414
  939EMI    H2"17840   5.443   4.433   3.535 -1.3589  1.6485 -3.0703
  939EMI    H2"17841   5.262   4.426   3.507 -0.9198  0.9465  3.2224
  940EMI     N117842   0.156   6.321   4.489 -0.3073  0.1501 -0.0583
  940EMI     C217843   0.076   6.217   4.505  0.4330  0.8273 -0.8970
  940EMI     N317844  -0.012   6.229   4.610  0.8753 -0.3142  0.3965
  940EMI     C417845   0.013   6.353   4.656  0.0503 -0.6304  0.5062
  940EMI     C517846   0.122   6.411   4.591 -0.1166 -0.1695  0.2435
  940EMI     H217847   0.072   6.133   4.443 -1.5146  1.3228 -2.2016
  940EMI     H417848  -0.057   6.395   4.731 -1.9954 -1.0868  0.2317
  940EMI     H517849   0.173   6.503   4.604  1.4799 -0.9520  1.6649
  940EMI    C1'17850  -0.098   6.126   4.682 -0.0803  0.4228 -0.2504
  940EMI    H1'17851  -0.029   6.062   4.739  0.2451  0.7888  1.7676
  940EMI    H1'17852  -0.171   6.181   4.736  2.6793  0.3273 -2.7302
  940EMI    H1'17853  -0.139   6.053   4.604  0.5230 -1.5214 -1.6248
  940EMI    C1"17854   0.244   6.349   4.376 -0.0851 -0.2798 -0.3648
  940EMI    H1"17855   0.218   6.448   4.337  0.9550 -0.8244 -2.0737
  940EMI    H1"17856   0.225   6.266   4.310  2.5892 -0.1083  2.8246
  940EMI    C2"17857   0.385   6.341   4.418 -0.1958 -0.0319  0.4380
  940EMI    H2"17858   0.427   6.430   4.463  2.1224 -1.2649  0.5301
  940EMI    H2"17859   0.404   6.252   4.484 -0.5428 -0.5353  2.8111
  940EMI    H2"17860   0.440   6.316   4.326 -1.5176 -1.0840  1.6544
  941EMI     N117861   0.056   6.178   2.428 -0.2094  0.2042  0.2412
  941EMI     C217862   0.055   6.289   2.352 -0.4245 -0.5131 -0.4942
  941EMI     N317863   0.165   6.365   2.373  0.4404  0.4226 -0.4818
  941EMI     C417864   0.239   6.304   2.468  0.1245  0.2486 -0.3488
  941EMI     C517865   0.172   6.191   2.503 -0.1033  0.1839  0.0212
  941EMI     H217866  -0.024   6.304   2.282  0.2998 -1.1648 -3.0463
  941EMI     H417867   0.340   6.334   2.502  1.4860 -1.3068  2.7781
  941EMI     H517868   0.207   6.117   2.562 -1.1088 -1.4705 -2.1424
  941EMI    C1'17869   0.210   6.489   2.304  0.2410  0.2233 -0.5998
  941EMI    H1'17870   0.127   6.559   2.302  1.0890  0.2098  5.2683
  941EMI    H1'17871   0.305   6.532   2.348  0.4734 -0.5353 -2.7520
  941EMI    H1'17872   0.237   6.455   2.202  0.2317  2.4236  0.2344
  941EMI    C1"17873  -0.053   6.078   2.442 -0.1891 -0.1224 -0.0089
  941EMI    H1"17874  -0.143   6.135   2.437  0.3542  0.4681 -2.4983
  941EMI    H1"17875  -0.031   6.026   2.540  4.2410 -0.8513 -0.9479
  941EMI    C2"17876  -0.030   5.984   2.323  0.2779 -0.7774  1.5224
  941EMI    H2"17877  -0.025   6.042   2.236  0.0902 -1.3695 -1.3810
  941EMI    H2"17878   0.059   5.915   2.330  0.8643  1.2548 -0.1797
  941EMI    H2"17879  -0.118   5.926   2.307  0.3694  0.6359 -0.8559
  942EMI     N117880   5.212   1.891   0.092  0.3213 -0.1137  0.7692
  942EMI     C217881   5.252   1.950  -0.024 -0.8593 -0.0115 -0.0463
  942EMI     N317882   5.173   1.913  -0.123  1.1312  0.3671  0.2990
  942EMI     C417883   5.085   1.827  -0.069  0.0384 -0.7252  0.3756
  942EMI     C517884   5.104   1.815   0.061  0.1661  0.5384 -0.1665
  942EMI     H217885   5.330   2.024  -0.032 -1.2818  0.6548  1.6512
  942EMI     H417886   5.006   1.776  -0.128 -1.4575 -0.3787 -2.1626
  942EMI     H517887   5.051   1.748   0.130 -1.0646 -0.4091  0.1891
  942EMI    C1'17888   5.168   1.961  -0.267  0.5822 -1.6049  0.2206
  942EMI    H1'17889   5.207   1.882  -0.329  0.1187 -0.6127  0.0210
  942EMI    H1'17890   5.066   1.987  -0.282  0.3254 -2.2939 -0.1048
  942EMI    H1'17891   5.221   2.052  -0.281 -0.5152 -0.3044 -1.2669
  942EMI    C1"17892   5.243   1.904   0.232 -0.3974 -0.2298 -0.8316
  942EMI    H1"17893   5.292   1.818   0.272  1.6718 -0.6269  3.4842
  942EMI    H1"17894   5.158   1.928   0.289  2.0576 -1.4787 -1.9256
  942EMI    C2"17895   5.342   2.018   0.252 -1.0064 -0.0856  0.3253
  942EMI    H2"17896   5.294   2.113   0.216  1.8272 -0.5723 -0.3986
  942EMI    H2"17897   5.382   2.031   0.359 -0.4028  0.0959  1.5228
  942EMI    H2"17898   5.431   2.000   0.187  1.2839  0.2175  0.2183
  943EMI     N117899   3.067   5.422   1.897 -0.3880  0.3093  0.2614
  943EMI     C217900   3.026   5.428   1.771  0.3011 -0.0371  1.0904
  943EMI     N317901   2.907   5.370   1.762  0.4795  0.1104  0.3428
  943EMI     C417902   2.867   5.323   1.886 -0.1365  0.0478  0.6337
  943EMI     C517903   2.974   5.348   1.966  0.2257 -0.1656  0.3354
  943EMI     H217904   3.065   5.496   1.694  1.0168  0.7678  0.0776
  943EMI     H417905   2.772   5.260   1.910 -0.0994 -1.3905  2.8749
  943EMI     H517906   2.982   5.314   2.072 -0.3039  1.6819  1.6997
  943EMI    C1'17907   2.817   5.347   1.646  0.3455 -1.3373  0.3352
  943EMI    H1'17908   2.855   5.396   1.555 -1.4924  0.1970  2.2956
  943EMI    H1'17909   2.795   5.242   1.630  0.9948 -2.2797 -1.1775
  943EMI    H1'17910   2.723   5.395   1.664  0.5191 -2.7719  0.3743
  943EMI    C1"17911   3.187   5.487   1.962 -0.0403 -0.0197  0.0303
  943EMI    H1"17912   3.267   5.453   1.898 -0.5650 -1.0925 -1.0826
  943EMI    H1"17913   3.183   5.454   2.064  0.9539 -1.1848  0.4064
  943EMI    C2"17914   3.158   5.639   1.963  0.0607  0.1729 -0.1971
  943EMI    H2"17915   3.077   5.654   2.023  0.0741  0.4670 -0.3005
  943EMI    H2"17916   3.250   5.685   1.989 -0.7629 -1.8095 -2.2746
  943EMI    H2"17917   3.137   5.670   1.863  5.9710 -0.8567 -0.5995
  944EMI     N117918   5.160   2.387   5.360  0.4347  0.2534 -0.0573
  944EMI     C217919   5.029   2.408   5.394 -0.2112  0.0332  1.1583
  944EMI     N317920   4.951   2.354   5.300 -0.7366  0.1718  0.1772
  944EMI     C417921   5.034   2.316   5.195  1.5739 -0.6337 -0.3558
  944EMI     C517922   5.158   2.328   5.236  0.3427  0.6130 -0.1400
  944EMI     H217923   5.003   2.467   5.483 -0.3541 -0.1649  1.0463
  944EMI     H417924   5.006   2.281   5.096 -0.6608 -1.8368 -0.7343
  944EMI     H517925   5.246   2.293   5.179 -0.3223  1.0714  0.1130
  944EMI    C1'17926   4.806   2.338   5.289  0.0247 -0.1648 -0.2592
  944EMI    H1'17927   4.779   2.302   5.194 -1.5310 -0.6950 -0.0404
  944EMI    H1'17928   4.778   2.264   5.359  0.3838 -1.9110 -1.0522
  944EMI    H1'17929   4.759   2.437   5.298  1.1011  3.1197 -1.3072
  944EMI    C1"17930   5.281   2.429   5.432 -0.5115  0.5924  0.3683
  944EMI    H1"17931   5.367   2.367   5.395  2.0968 -1.3388 -2.5960
  944EMI    H1"17932   5.262   2.403   5.537 -0.1684 -0.1330  0.0446
  944EMI    C2"17933   5.314   2.571   5.424  0.0914 -0.6083 -0.1354
  944EMI    H2"17934   5.345   2.601   5.323 -0.5555 -0.2754 -1.3954
  944EMI    H2"17935   5.232   2.633   5.462  0.2076  0.7222 -0.3802
  944EMI    H2"17936   5.395   2.577   5.495 -2.8796 -2.3099  0.3601
  945EMI     N117937   4.323   2.208   1.557  0.3573  0.2021 -0.4550
  945EMI     C217938   4.199   2.248   1.578 -0.5340  0.1990 -0.6768
  945EMI     N317939   4.176   2.363   1.518  0.2884  0.1255  0.0332
  945EMI     C417940   4.286   2.393   1.447 -0.0920 -0.9404  0.2364
  945EMI     C517941   4.382   2.302   1.472  0.3361 -0.0862 -0.7723
  945EMI     H217942   4.135   2.195   1.647 -0.9973 -1.1821  1.9596
  945EMI     H417943   4.293   2.477   1.382 -0.4081  0.4637 -0.4139
  945EMI     H517944   4.479   2.292   1.426  1.4811  2.0404 -0.5611
  945EMI    C1'17945   4.063   2.454   1.543 -0.2749  0.2744 -0.0111
  945EMI    H1'17946   3.985   2.451   1.461 -5.2509  0.1807  0.6709
  945EMI    H1'17947   4.012   2.418   1.628 -1.7306  0.7572 -0.6438
  945EMI    H1'17948   4.094   2.555   1.564 -0.3323  0.3030 -0.0790
  945EMI    C1"17949   4.382   2.094   1.626  0.1304  0.3842  0.0456
  945EMI    H1"17950   4.358   2.088   1.728  0.4115 -0.4941  1.0495
  945EMI    H1"17951   4.489   2.108   1.607  1.5268  3.4896 -3.6378
  945EMI    C2"17952   4.336   1.958   1.570 -0.1428  0.2689 -0.1422
  945EMI    H2"17953   4.353   1.883   1.644  2.1963  1.0895  1.0899
  945EMI    H2"17954   4.233   1.961   1.551  1.0870 -1.6839 -2.3006
  945EMI    H2"17955   4.386   1.928   1.474  1.9664  0.6463 -1.4912
  946EMI     N117956   1.303   4.545   6.198  0.1462  0.8701 -0.2742
  946EMI     C217957   1.422   4.471   6.200 -0.1363 -0.0360 -0.2728
  946EMI     N317958   1.514   4.538   6.123  0.0561  0.2285 -0.0390
  946EMI     C417959   1.454   4.655   6.085  0.7008  0.1411 -0.0142
  946EMI     C517960   1.322   4.663   6.125  0.0853  0.5253  0.4081
  946EMI     H217961   1.435   4.367   6.236  1.3219 -3.3645 -0.1044
  946EMI     H417962   1.516   4.723   6.026  1.4159 -1.5257  3.0941
  946EMI     H517963   1.256   4.745   6.102  0.3369 -2.2762 -1.0741
  946EMI    C1'17964   1.646   4.502   6.059  0.0196  0.2791 -0.0787
  946EMI    H1'17965   1.719   4.574   6.059  1.4157 -0.3683  1.9112
  946EMI    H1'17966   1.679   4.412   6.113 -1.7516 -0.0325 -0.4394
  946EMI    H1'17967   1.625   4.469   5.955  0.0195 -0.6705 -1.1101
  946EMI    C1"17968   1.171   4.504   6.261  0.4758  0.0876 -0.5727
  946EMI    H1"17969   1.146   4.575   6.342  0.4474 -1.9107  3.5931
  946EMI    H1"17970   1.187   4.412   6.312  1.7220  1.7326  1.6782
  946EMI    C2"17971   1.059   4.497   6.152 -0.2067  0.5190  0.2496
  946EMI    H2"17972   1.040   4.590   6.099  1.0951 -1.0849 -1.1498
  946EMI    H2"17973   1.075   4.427   6.069  1.5726 -0.8437 -0.4702
  946EMI    H2"17974   0.977   4.453   6.208  0.8358 -0.1408  3.6425
  947EMI     N117975   4.578   1.245   0.516 -0.2993  0.1262  0.1989
  947EMI     C217976   4.675   1.282   0.432  1.1082 -0.1431 -0.1859
  947EMI     N317977   4.686   1.415   0.436 -0.5174  0.6166 -0.5668
  947EMI     C417978   4.605   1.459   0.535 -0.3207 -0.5779 -0.0855
  947EMI     C517979   4.531   1.357   0.581 -0.4937 -0.0481 -0.2435
  947EMI     H217980   4.728   1.213   0.365 -1.1366  2.1474 -1.8773
  947EMI     H417981   4.596   1.566   0.560  0.2336  1.2265  0.4605
  947EMI     H517982   4.452   1.358   0.656 -2.2537 -0.1006  1.8137
  947EMI    C1'17983   4.766   1.506   0.356  0.0430  0.5280  0.1576
  947EMI    H1'17984   4.753   1.611   0.391 -0.2521  0.1623 -0.1416
  947EMI    H1'17985   4.876   1.480   0.377  0.3834 -2.1786  2.0974
  947EMI    H1'17986   4.753   1.499   0.253  0.1600 -2.0732  1.8678
  947EMI    C1"17987   4.528   1.118   0.551 -0.2562  0.5319  0.6249
  947EMI    H1"17988   4.427   1.122   0.588  1.2213 -1.4030 -1.2789
  947EMI    H1"17989   4.596   1.071   0.623 -2.3497  0.2499  2.0450
  947EMI    C2"17990   4.515   1.031   0.421  0.4017  0.6938  0.7857
  947EMI    H2"17991   4.476   1.087   0.335  3.9541  1.5383 -2.3668
  947EMI    H2"17992   4.612   0.996   0.376 -1.3751  0.7651  1.1802
  947EMI    H2"17993   4.453   0.945   0.438  0.7629 -1.3472  1.8193
  948EMI     N117994   4.777   1.239   4.393 -0.2837  0.2399 -0.1224
  948EMI     C217995   4.663   1.283   4.455 -0.1948  0.8491  0.2364
  948EMI     N317996   4.561   1.232   4.390  0.0890 -0.1250  1.0326
  948EMI     C417997   4.608   1.162   4.283  0.3685 -0.1530 -0.0185
  948EMI     C517998   4.738   1.174   4.279  0.5537  0.6849 -0.1719
  948EMI     H217999   4.654   1.348   4.533  1.6342  3.1697  1.0065
  948EMI     H418000   4.533   1.121   4.215 -2.6223 -1.5618  0.3375
  948EMI     H518001   4.800   1.136   4.197  0.8373 -0.0841 -0.6303
  948EMI    C1'18002   4.417   1.235   4.420  0.0364  0.4339  0.6955
  948EMI    H1'18003   4.362   1.138   4.427  1.6323 -2.3511  2.8038
  948EMI    H1'18004   4.415   1.282   4.522  1.0313  0.7798  2.7282
  948EMI    H1'18005   4.366   1.296   4.352  1.1261  2.4950  2.3689
  948EMI    C1"18006   4.921   1.250   4.430  0.2637 -0.1739 -0.2834
  948EMI    H1"18007   4.974   1.187   4.357 -0.3223  0.8387  1.2984
  948EMI    H1"18008   4.933   1.206   4.530  1.6433 -1.2198 -0.0346
  948EMI    C2"18009   4.962   1.401   4.438 -0.0935  0.7451 -0.3642
  948EMI    H2"18010   4.954   1.460   4.346  0.1067 -2.2147 -0.6955
  948EMI    H2"18011   4.910   1.448   4.521  1.0626 -4.5626  0.4077
  948EMI    H2"18012   5.061   1.409   4.470 -2.1301  0.7223  1.1055
  949EMI     N118013   2.831   3.319   0.066  0.1279 -0.3169 -0.4466
  949EMI     C218014   2.811   3.417   0.152  0.6130 -0.5334 -0.2079
  949EMI     N318015   2.919   3.497   0.148  0.2981  0.6423 -0.5885
  949EMI     C418016   3.010   3.448   0.064  0.2363 -0.0301  0.1246
  949EMI     C518017   2.958   3.333   0.013 -0.5055 -0.0853  0.6833
  949EMI     H218018   2.724   3.444   0.203 -1.4777  1.2628  1.7219
  949EMI     H418019   3.096   3.506   0.024 -0.5735  1.2775 -1.2151
  949EMI     H518020   2.999   3.281  -0.074  1.0240  0.1736 -1.1916
  949EMI    C1'18021   2.944   3.627   0.208  0.0289  0.0961  0.3373
  949EMI    H1'18022   2.921   3.710   0.139  0.8092  1.3757 -0.5587
  949EMI    H1'18023   2.892   3.635   0.299  0.7057 -0.7393 -1.1464
  949EMI    H1'18024   3.054   3.621   0.229  0.3971  1.4368  3.4471
  949EMI    C1"18025   2.735   3.216   0.010  0.0042 -0.5392 -0.6099
  949EMI    H1"18026   2.734   3.128   0.074 -2.7430  0.7015  0.1355
  949EMI    H1"18027   2.769   3.179  -0.084  0.9215  3.4303  1.8958
  949EMI    C2"18028   2.595   3.270  -0.017 -0.6280  0.9588  0.0567
  949EMI    H2"18029   2.616   3.324  -0.108 -0.9832 -1.1741  1.8767
  949EMI    H2"18030   2.532   3.184  -0.036  0.2758  1.1825  1.3093
  949EMI    H2"18031   2.558   3.341   0.057  1.2771 -1.9660 -0.0913
  950EMI     N118032   4.739   2.388   3.729 -0.4345 -0.1630 -0.1875
  950EMI     C218033   4.685   2.347   3.611 -0.4279  0.6899  0.3878
  950EMI     N318034   4.635   2.226   3.625  0.3252  0.0009  0.4498
  950EMI     C418035   4.651   2.197   3.761 -0.2654 -0.4425  0.5091
  950EMI     C518036   4.710   2.294   3.823 -0.1150  1.1630  0.6941
  950EMI     H218037   4.702   2.407   3.517 -1.0956  4.8643 -0.0154
  950EMI     H418038   4.609   2.115   3.817 -0.5080  1.3801  0.4977
  950EMI     H518039   4.734   2.290   3.931  1.6205 -0.7971 -0.5862
  950EMI    C1'18040   4.566   2.136   3.523 -0.3569 -0.4586 -0.4150
  950EMI    H1'18041   4.626   2.049   3.507 -3.2395 -2.1002 -0.0853
  950EMI    H1'18042   4.473   2.112   3.567 -0.1780 -0.0453  2.6982
  950EMI    H1'18043   4.552   2.189   3.433  1.9272 -0.1310  0.5934
  950EMI    C1"18044   4.821   2.506   3.751 -0.3560 -0.0381 -0.2381
  950EMI    H1"18045   4.909   2.514   3.678  3.5780 -1.8083  2.1211
  950EMI    H1"18046   4.861   2.494   3.849 -1.7287  1.7795 -0.1981
  950EMI    C2"18047   4.732   2.627   3.742  0.0722  0.0162 -0.1444
  950EMI    H2"18048   4.641   2.620   3.802 -1.1823 -0.4752  4.2378
  950EMI    H2"18049   4.781   2.712   3.796  1.5891  1.0957 -1.5743
  950EMI    H2"18050   4.709   2.652   3.641 -1.6702 -3.6283  2.3722
  951EMI     N118051   2.367   2.261   0.273 -0.2981  0.2124 -0.2382
  951EMI     C218052   2.426   2.212   0.385 -1.0332  0.4711 -0.3801
  951EMI     N318053   2.410   2.294   0.489 -0.1607  0.2185 -0.2155
  951EMI     C418054   2.334   2.396   0.451 -0.0647 -0.5206 -0.2036
  951EMI     C518055   2.316   2.384   0.314  0.1852 -0.7354 -0.6553
  951EMI     H218056   2.484   2.123   0.394  0.6850  3.8661 -0.5712
  951EMI     H418057   2.296   2.471   0.519  0.5561 -3.9198 -0.4678
  951EMI     H518058   2.261   2.455   0.251  2.4434  1.8365 -0.0880
  951EMI    C1'18059   2.457   2.294   0.624 -0.1700 -0.6852 -0.2027
  951EMI    H1'18060   2.386   2.355   0.680  0.2346 -0.0894 -1.4116
  951EMI    H1'18061   2.466   2.193   0.653 -1.0114  2.2351 -1.3910
  951EMI    H1'18062   2.552   2.332   0.637 -2.2199  1.0177 -0.7114
  951EMI    C1"18063   2.348   2.208   0.136  0.4064 -0.1015  0.1572
  951EMI    H1"18064   2.345   2.279   0.055  1.1384 -0.6736 -1.5151
  951EMI    H1"18065   2.241   2.174   0.132 -1.7955 -0.6531  0.8048
  951EMI    C2"18066   2.453   2.107   0.097  0.7144 -0.1884 -0.0921
  951EMI    H2"18067   2.443   2.032   0.170 -0.1385  1.3646  0.6670
  951EMI    H2"18068   2.441   2.053   0.003  0.2310  0.1414 -0.6721
  951EMI    H2"18069   2.544   2.172   0.095  5.7983 -0.2039 -0.0525
  952EMI     N118070   3.715   2.454   6.133 -0.7551  0.4484  0.7465
  952EMI     C218071   3.611   2.398   6.199 -1.0115 -0.0312  0.3388
  952EMI     N318072   3.650   2.297   6.273  0.1142  0.0602 -0.4626
  952EMI     C418073   3.778   2.282   6.247  0.0799 -0.6846 -0.1378
  952EMI     C518074   3.827   2.381   6.166 -0.0683 -0.2296  0.2498
  952EMI     H218075   3.504   2.438   6.189 -0.4366  0.9115  1.3020
  952EMI     H418076   3.841   2.209   6.303  1.9506  1.2431  1.2754
  952EMI     H518077   3.932   2.403   6.138 -0.0198  0.3213  0.2068
  952EMI    C1'18078   3.573   2.218   6.366  0.0611 -0.1591 -0.9360
  952EMI    H1'18079   3.594   2.115   6.338 -1.6494 -0.4789 -0.6006
  952EMI    H1'18080   3.599   2.245   6.467 -0.0653  1.5144 -0.9350
  952EMI    H1'18081   3.463   2.236   6.360 -0.1202  1.1821  0.3592
  952EMI    C1"18082   3.723   2.567   6.047  0.2109 -0.0931 -0.0296
  952EMI    H1"18083   3.674   2.541   5.951  0.9965  2.8037 -0.9077
  952EMI    H1"18084   3.830   2.584   6.020  0.7299 -1.3830 -2.4588
  952EMI    C2"18085   3.672   2.693   6.123 -0.3229  1.1887  0.4444
  952EMI    H2"18086   3.663   2.679   6.237  1.7242  1.6972  1.7150
  952EMI    H2"18087   3.733   2.778   6.107 -1.4690 -1.9829 -1.5975
  952EMI    H2"18088   3.579   2.730   6.082 -0.0025 -1.8048  2.6767
  953EMI     N118089   4.675   2.804   1.224  0.5059 -0.5500 -0.4014
  953EMI     C218090   4.725   2.741   1.117  0.1992 -0.4274  1.1099
  953EMI     N318091   4.721   2.822   1.009 -0.4110  0.0035  0.2268
  953EMI     C418092   4.652   2.936   1.046 -0.0487  0.7210  0.0039
  953EMI     C518093   4.623   2.922   1.177  0.1405  0.0793 -0.8081
  953EMI     H218094   4.765   2.635   1.122  2.0207 -0.8713  1.8482
  953EMI     H418095   4.635   3.028   0.993 -1.1046  1.3456 -1.3597
  953EMI     H518096   4.584   3.007   1.233  2.4486  0.6854  0.6996
  953EMI    C1'18097   4.774   2.803   0.872 -0.4926 -0.2470 -0.8345
  953EMI    H1'18098   4.884   2.780   0.865  0.6713 -2.4693 -0.4258
  953EMI    H1'18099   4.717   2.723   0.833  1.2647  2.7335  1.9980
  953EMI    H1'18100   4.756   2.903   0.817  1.3196  1.8808 -0.9997
  953EMI    C1"18101   4.656   2.762   1.369  0.2052  0.0844 -0.3255
  953EMI    H1"18102   4.694   2.842   1.434  1.6703  0.0327 -1.1122
  953EMI    H1"18103   4.721   2.671   1.385  1.2774 -2.8892 -2.0850
  953EMI    C2"18104   4.510   2.714   1.397  0.2932  0.3997  0.6669
  953EMI    H2"18105   4.520   2.637   1.476  1.6608 -4.1578  0.7457
  953EMI    H2"18106   4.435   2.791   1.420 -1.4048 -0.4230  0.9694
  953EMI    H2"18107   4.476   2.667   1.303  0.3347 -1.6167 -0.7488
  954EMI     N118108   3.174   0.952   0.871  0.1873 -0.7831  0.1826
  954EMI     C218109   3.258   0.960   0.766  0.5402  0.1325 -0.0423
  954EMI     N318110   3.347   1.053   0.788 -0.3897  0.0688  0.1637
  954EMI     C418111   3.329   1.110   0.908 -0.2150  0.6404 -0.3080
  954EMI     C518112   3.223   1.044   0.961 -0.7783  0.1195  0.3202
  954EMI     H218113   3.253   0.905   0.668  0.8575 -0.5482  0.0032
  954EMI     H418114   3.387   1.190   0.949  0.1279  0.9691  0.4181
  954EMI     H518115   3.176   1.074   1.054  0.9117 -2.1506  1.1501
  954EMI    C1'18116   3.443   1.104   0.694 -0.6941 -0.3482 -0.2839
  954EMI    H1'18117   3.392   1.088   0.603  0.2098  0.5524  2.6338
  954EMI    H1'18118   3.465   1.214   0.705 -2.8357 -0.2474 -1.4319
  954EMI    H1'18119   3.528   1.040   0.690 -1.8745 -3.2429 -2.0947
  954EMI    C1"18120   3.057   0.861   0.891  0.0038 -0.4642 -0.5321
  954EMI    H1"18121   3.033   0.854   0.994 -2.0322  2.1422  2.5263
  954EMI    H1"18122   3.093   0.767   0.860 -0.3379  1.2690 -0.4705
  954EMI    C2"18123   2.938   0.905   0.810  0.2755 -0.1321  0.3680
  954EMI    H2"18124   2.868   0.969   0.868 -0.3106  0.6284  0.6612
  954EMI    H2"18125   2.966   0.959   0.716 -1.3718  0.8100 -1.8864
  954EMI    H2"18126   2.884   0.814   0.783  0.7038 -1.0960 -0.1600
  955EMI     N118127   3.292   0.008   5.389 -0.0565 -0.2651 -0.4465
  955EMI     C218128   3.250   0.019   5.256  0.1595 -0.2689  0.5548
  955EMI     N318129   3.345  -0.024   5.180 -0.4819  0.2328  0.3510
  955EMI     C418130   3.457  -0.045   5.251  0.0681 -0.3463 -0.3546
  955EMI     C518131   3.421  -0.032   5.379  0.1674 -0.4095 -0.3471
  955EMI     H218132   3.155   0.049   5.216  1.7720  0.0608  0.8150
  955EMI     H418133   3.554  -0.070   5.213  1.0314  1.8648 -0.3921
  955EMI     H518134   3.499  -0.050   5.455  0.9779  3.0877  1.2289
  955EMI    C1'18135   3.345  -0.018   5.033 -0.6696  0.3532 -0.2386
  955EMI    H1'18136   3.283  -0.096   4.989  1.3393 -1.3702  1.5399
  955EMI    H1'18137   3.326   0.083   5.000 -0.5846  1.7969  0.4145
  955EMI    H1'18138   3.448  -0.038   4.998  4.2881 -1.4122  1.6757
  955EMI    C1"18139   3.229   0.042   5.521 -0.0989 -0.2395 -0.8295
  955EMI    H1"18140   3.276  -0.009   5.605 -4.2780 -2.2894  0.3571
  955EMI    H1"18141   3.125  -0.003   5.512 -1.8031 -0.6874  0.1029
  955EMI    C2"18142   3.203   0.193   5.539  0.0183  0.1454 -0.3220
  955EMI    H2"18143   3.287   0.255   5.527 -2.2550  0.6581 -3.1400
  955EMI    H2"18144   3.130   0.223   5.464  3.5499 -0.7710 -2.1872
  955EMI    H2"18145   3.160   0.206   5.638  1.0238 -0.1383 -1.5361
  956EMI     N118146   6.167   4.293   4.132 -0.4192  0.0380 -0.5188
  956EMI     C218147   6.054   4.362   4.119  0.9254  0.2628  0.3718
  956EMI     N318148   5.953   4.282   4.119 -0.1360 -0.0042 -0.3100
  956EMI     C418149   5.998   4.150   4.115  0.3397 -0.0495  0.4892
  956EMI     C518150   6.134   4.159   4.130  0.0660  0.6113  0.1243
  956EMI     H218151   6.041   4.469   4.120  0.3245 -0.0655 -0.8228
  956EMI     H418152   5.942   4.056   4.126 -1.5899  2.7587  1.2967
  956EMI     H518153   6.200   4.073   4.151 -1.4628 -0.0317 -1.2475
  956EMI    C1'18154   5.811   4.317   4.107  0.4365 -0.5687  0.0882
  956EMI    H1'18155   5.750   4.228   4.095  3.6190  1.2705 -0.6215
  956EMI    H1'18156   5.777   4.395   4.173  0.1634 -2.4385  0.0154
  956EMI    H1'18157   5.800   4.350   4.010 -1.9477 -2.0282 -0.0711
  956EMI    C1"18158   6.308   4.341   4.160  0.5536 -0.2100 -0.1832
  956EMI    H1"18159   6.368   4.255   4.194 -3.6083  0.3648  1.1446
  956EMI    H1"18160   6.311   4.394   4.253 -0.9547 -2.5762  1.8589
  956EMI    C2"18161   6.360   4.432   4.056 -0.2249 -0.7072  0.3681
  956EMI    H2"18162   6.300   4.521   4.038 -1.4379 -1.3178  0.8859
  956EMI    H2"18163   6.458   4.470   4.088 -0.0305  1.9931  2.9133
  956EMI    H2"18164   6.365   4.377   3.957  1.5132 -0.3041 -2.5297
  957EMI     N118165   2.933   4.456   3.006  0.6695  0.4098  0.0602
  957EMI     C218166   2.844   4.558   3.022  0.1305 -0.2774  0.0294
  957EMI     N318167   2.869   4.653   2.927 -0.3083 -0.3865 -0.0865
  957EMI     C418168   2.978   4.614   2.854  0.3806 -0.0760  0.1629
  957EMI     C518169   3.016   4.497   2.905  0.1856 -0.0754  1.3034
  957EMI     H218170   2.767   4.561   3.093 -1.0247 -1.0076 -0.9209
  957EMI     H418171   3.019   4.669   2.771 -0.9620 -1.7260 -1.0088
  957EMI     H518172   3.099   4.440   2.871  0.2158  1.4580 -0.4058
  957EMI    C1'18173   2.785   4.760   2.889 -0.4289 -0.6477  0.3270
  957EMI    H1'18174   2.848   4.843   2.857  1.5155 -0.1873  0.2433
  957EMI    H1'18175   2.737   4.722   2.799  1.4607 -0.2256  0.5881
  957EMI    H1'18176   2.717   4.803   2.966 -1.7395  1.5950 -1.8577
  957EMI    C1"18177   2.943   4.318   3.054 -0.0467  0.1121  0.0303
  957EMI    H1"18178   3.025   4.274   2.992  1.1416  1.0766 -2.2202
  957EMI    H1"18179   2.844   4.267   3.038 -0.4919  0.8642 -1.7590
  957EMI    C2"18180   2.970   4.315   3.206  0.3772 -0.2013  0.0740
  957EMI    H2"18181   3.008   4.222   3.238 -1.1729  0.6860 -1.1788
  957EMI    H2"18182   3.045   4.391   3.231  0.6838  2.4878  2.1932
  957EMI    H2"18183   2.885   4.342   3.275  0.9902 -0.3483 -0.4967
  958EMI     N118184   2.011   0.380   2.538  0.5100  0.3689  0.1095
  958EMI     C218185   2.133   0.416   2.499  0.1352 -0.7379 -1.1035
  958EMI     N318186   2.208   0.309   2.468  0.5970 -0.0251 -0.0645
  958EMI     C418187   2.128   0.199   2.475 -0.1802  0.6961 -0.3938
  958EMI     C518188   2.007   0.242   2.512  0.7185  0.0047  0.4585
  958EMI     H218189   2.177   0.512   2.515  0.9916 -0.9828  0.1263
  958EMI     H418190   2.159   0.096   2.456 -1.9424 -0.8630  1.2596
  958EMI     H518191   1.918   0.181   2.519  2.6354 -0.4066  1.2727
  958EMI    C1'18192   2.350   0.295   2.442 -0.2990 -0.4694  0.1937
  958EMI    H1'18193   2.390   0.242   2.529  1.0922 -0.8365 -0.0070
  958EMI    H1'18194   2.369   0.241   2.353  1.1803 -0.4529  1.0039
  958EMI    H1'18195   2.393   0.396   2.437 -1.5466 -1.5631 -0.3130
  958EMI    C1"18196   1.892   0.460   2.580  0.0043 -0.2832 -0.3588
  958EMI    H1"18197   1.924   0.532   2.652  2.0413  0.3839 -2.1889
  958EMI    H1"18198   1.815   0.396   2.625  2.5096 -1.2104 -0.3982
  958EMI    C2"18199   1.836   0.541   2.467  0.4216  0.5044 -0.8239
  958EMI    H2"18200   1.891   0.633   2.471  1.7940 -2.3610  2.1731
  958EMI    H2"18201   1.859   0.492   2.374 -1.1217 -2.9231 -2.1084
  958EMI    H2"18202   1.730   0.563   2.492 -0.4818 -0.7161 -0.2999
  959EMI     N118203   2.072   0.783   2.098  0.1514 -0.0744  0.1036
  959EMI     C218204   2.165   0.733   2.021  0.4232  0.4933  0.5914
  959EMI     N318205   2.267   0.819   2.012 -0.1406 -0.5376 -0.4641
  959EMI     C418206   2.234   0.932   2.089 -0.2131 -0.8649  0.2923
  959EMI     C518207   2.109   0.913   2.139 -0.7625 -0.0414  0.2926
  959EMI     H218208   2.174   0.637   1.972 -0.3460 -0.6799 -2.8004
  959EMI     H418209   2.296   1.021   2.109 -1.3749  0.4596 -1.4523
  959EMI     H518210   2.061   0.975   2.206  1.9131 -1.9128 -0.9242
  959EMI    C1'18211   2.388   0.828   1.931  0.3175  0.5646  0.5714
  959EMI    H1'18212   2.474   0.833   1.985 -1.7760  2.0813  0.1587
  959EMI    H1'18213   2.392   0.730   1.879  3.9808  0.4850 -0.4645
  959EMI    H1'18214   2.391   0.901   1.855  0.7062 -0.9387 -0.8854
  959EMI    C1"18215   1.941   0.724   2.138 -0.3870  0.5560  0.7767
  959EMI    H1"18216   1.896   0.807   2.178 -0.8707  2.1093  1.0008
  959EMI    H1"18217   1.949   0.646   2.210 -0.1353 -0.3398 -2.2416
  959EMI    C2"18218   1.864   0.683   2.016  0.6484  0.5347  0.7465
  959EMI    H2"18219   1.751   0.687   2.034  1.2656 -0.8931 -0.0114
  959EMI    H2"18220   1.870   0.749   1.930 -0.8336  1.2795 -1.3845
  959EMI    H2"18221   1.894   0.586   1.974  0.0130 -2.1807 -1.0787
  960EMI     N118222   2.690   3.772   4.363  0.0230 -0.1536  0.4500
  960EMI     C218223   2.783   3.800   4.273 -0.0241  0.4976 -1.3388
  960EMI     N318224   2.781   3.930   4.251  0.0017 -0.0711 -0.1885
  960EMI     C418225   2.677   3.987   4.314 -0.3131 -0.2725 -0.8980
  960EMI     C518226   2.619   3.888   4.392  0.4149 -0.3500  0.6496
  960EMI     H218227   2.850   3.723   4.227  0.4637 -0.0144 -2.0832
  960EMI     H418228   2.645   4.091   4.305 -2.6399  1.6330  1.7491
  960EMI     H518229   2.524   3.898   4.451  1.9269  0.5457 -0.0885
  960EMI    C1'18230   2.870   4.005   4.166  0.7004 -0.0586 -0.4177
  960EMI    H1'18231   2.837   4.009   4.071 -0.4898  0.2693  0.3572
  960EMI    H1'18232   2.880   4.104   4.200 -2.2332 -0.0474 -1.9294
  960EMI    H1'18233   2.965   3.954   4.168 -1.2262  1.3621  0.4557
  960EMI    C1"18234   2.643   3.645   4.411 -0.7700 -0.1286  0.4731
  960EMI    H1"18235   2.588   3.667   4.500  1.1893  1.5431 -1.2274
  960EMI    H1"18236   2.730   3.580   4.429  3.1172 -0.3450 -0.9939
  960EMI    C2"18237   2.543   3.589   4.308 -0.9402 -0.1969  0.4161
  960EMI    H2"18238   2.492   3.502   4.354 -3.5280  2.6219  0.3671
  960EMI    H2"18239   2.475   3.665   4.279  1.4207 -0.8211 -1.4703
  960EMI    H2"18240   2.600   3.553   4.219 -2.6276  0.2928 -1.8442
  961EMI     N118241   2.918   1.128   3.341 -0.0265  0.2503 -0.9429
  961EMI     C218242   2.900   1.142   3.214  0.3428 -0.1856  0.5467
  961EMI     N318243   2.871   1.269   3.185 -1.1235 -0.1670  0.3585
  961EMI     C418244   2.890   1.342   3.300 -0.8130 -0.1120  0.2486
  961EMI     C518245   2.916   1.253   3.400  0.0436 -0.4814  0.6428
  961EMI     H218246   2.892   1.069   3.137  2.5209  0.2050  0.0215
  961EMI     H418247   2.869   1.443   3.304 -0.6708  0.2252 -0.1075
  961EMI     H518248   2.932   1.291   3.497  1.4533 -0.2748 -0.4023
  961EMI    C1'18249   2.836   1.336   3.061  0.4144 -0.2857 -0.3145
  961EMI    H1'18250   2.724   1.341   3.058  1.4678  0.5348  0.5779
  961EMI    H1'18251   2.881   1.441   3.060 -0.3832 -0.3311 -0.5149
  961EMI    H1'18252   2.874   1.284   2.972  1.0900 -1.9129 -2.2326
  961EMI    C1"18253   2.951   1.008   3.418  0.4743  0.8060  0.2741
  961EMI    H1"18254   2.875   0.925   3.400 -1.7328  2.0068 -1.5456
  961EMI    H1"18255   2.940   1.027   3.530 -0.7568  3.8082 -2.3407
  961EMI    C2"18256   3.094   0.969   3.374  0.1375  0.2988  0.1022
  961EMI    H2"18257   3.172   1.051   3.387 -0.4415  1.4053  1.9335
  961EMI    H2"18258   3.121   0.876   3.421 -1.5321  0.6739 -2.6742
  961EMI    H2"18259   3.104   0.939   3.271 -1.3292 -1.2400  1.3668
  962EMI     N118260   6.117   0.878   4.063  0.2918 -0.0133 -0.4255
  962EMI     C218261   6.001   0.877   4.129  0.7152  0.3916  0.2693
  962EMI     N318262   6.021   0.876   4.263 -0.4086  0.7317 -0.1531
  962EMI     C418263   6.158   0.870   4.282 -0.6450 -0.3585 -0.2888
  962EMI     C518264   6.215   0.874   4.160 -0.4159 -0.4078 -0.1962
  962EMI     H218265   5.906   0.870   4.082  0.5917 -1.7751  1.0667
  962EMI     H418266   6.223   0.863   4.367 -0.0883  0.9921 -0.1108
  962EMI     H518267   6.320   0.878   4.153 -1.9824 -0.5918  0.2860
  962EMI    C1'18268   5.927   0.844   4.366  0.0403 -0.6392  0.6126
  962EMI    H1'18269   5.979   0.831   4.460 -3.5426  1.3187  1.5574
  962EMI    H1'18270   5.857   0.928   4.387  1.1067 -0.4328 -0.2662
  962EMI    H1'18271   5.876   0.753   4.339  0.9790  0.3324  1.6922
  962EMI    C1"18272   6.144   0.862   3.916  0.7518  0.5409 -0.7762
  962EMI    H1"18273   6.253   0.840   3.899  0.5438 -0.0622  1.1068
  962EMI    H1"18274   6.108   0.939   3.858 -2.8634  0.6734  1.3373
  962EMI    C2"18275   6.073   0.732   3.863 -0.0829  0.2360 -0.1163
  962EMI    H2"18276   5.967   0.725   3.892 -2.4140  0.7336  0.2116
  962EMI    H2"18277   6.081   0.732   3.750 -2.7958 -0.2464  1.0724
  962EMI    H2"18278   6.139   0.652   3.903  1.5101 -0.7788 -0.1703
  963EMI     N118279   4.144   0.285   0.431 -0.4954  0.1318  0.1597
  963EMI     C218280   4.032   0.353   0.441  0.5944  0.6306  0.3566
  963EMI     N318281   4.029   0.424   0.558 -0.1436 -0.4526  0.1322
  963EMI     C418282   4.145   0.383   0.631 -0.6822 -0.4768  0.3618
  963EMI     C518283   4.206   0.300   0.553  0.5136 -0.2507 -0.2978
  963EMI     H218284   3.952   0.360   0.368  0.9493 -0.2158 -0.4181
  963EMI     H418285   4.174   0.407   0.730 -0.8401  0.2709 -1.3072
  963EMI     H518286   4.293   0.234   0.572  0.8133  0.6507 -0.3126
  963EMI    C1'18287   3.930   0.524   0.607  0.0605 -0.3743 -0.0913
  963EMI    H1'18288   3.947   0.548   0.708  3.8105  0.0979 -1.1867
  963EMI    H1'18289   3.949   0.619   0.557  1.7939 -0.7038 -0.2541
  963EMI    H1'18290   3.831   0.491   0.596 -0.5367  1.5824 -0.4357
  963EMI    C1"18291   4.184   0.183   0.335 -0.3900 -0.1189 -0.2761
  963EMI    H1"18292   4.093   0.119   0.327  0.6041  0.5083  0.2183
  963EMI    H1"18293   4.275   0.129   0.359  1.2212  0.5381  1.4638
  963EMI    C2"18294   4.200   0.250   0.196  0.7160 -0.4145  0.1246
  963EMI    H2"18295   4.281   0.325   0.206 -0.2511 -1.8602  0.8514
  963EMI    H2"18296   4.235   0.175   0.124  1.7235  0.8949  1.0595
  963EMI    H2"18297   4.115   0.303   0.145  0.2294 -1.8480 -2.0252
  964EMI     N118298   4.562   5.421   2.005  0.5122 -0.3596 -0.0095
  964EMI     C218299   4.497   5.368   2.108  0.2445 -0.1234  0.5445
  964EMI     N318300   4.473   5.466   2.196 -0.2995  0.3140 -0.0991
  964EMI     C418301   4.503   5.586   2.138 -0.0484 -0.0618  0.5558
  964EMI     C518302   4.567   5.558   2.021  0.1085  0.3985 -0.0355
  964EMI     H218303   4.472   5.268   2.118 -1.2050  1.0736  0.3538
  964EMI     H418304   4.485   5.687   2.182 -0.4834  2.0220  0.0096
  964EMI     H518305   4.609   5.627   1.947 -0.9567  0.5273  1.2692
  964EMI    C1'18306   4.415   5.467   2.330  0.1312 -0.4831  0.4321
  964EMI    H1'18307   4.467   5.394   2.399 -1.7188 -1.0229 -0.8535
  964EMI    H1'18308   4.414   5.568   2.371 -4.6413  0.7845 -3.9403
  964EMI    H1'18309   4.315   5.425   2.325 -1.9518  0.5097  3.4297
  964EMI    C1"18310   4.612   5.363   1.883 -0.0231  0.5486 -0.5392
  964EMI    H1"18311   4.666   5.275   1.904 -0.8371  1.7742  1.3657
  964EMI    H1"18312   4.669   5.433   1.831  0.5240 -1.0904 -1.4701
  964EMI    C2"18313   4.492   5.331   1.798 -0.0684 -0.2374  0.3534
  964EMI    H2"18314   4.419   5.412   1.785 -0.4927 -0.6139 -2.1084
  964EMI    H2"18315   4.526   5.304   1.694  0.8787  0.0384  0.2167
  964EMI    H2"18316   4.432   5.252   1.842 -0.2282  0.8553  1.0838
  965EMI     N118317   0.940   4.108   0.882 -0.2358 -1.0172 -0.6314
  965EMI     C218318   0.911   4.217   0.814  0.5229 -0.5501  0.5019
  965EMI     N318319   0.840   4.307   0.880 -0.0924  0.0376  0.2380
  965EMI     C418320   0.823   4.249   1.008  0.7687  0.7915  1.2447
  965EMI     C518321   0.883   4.130   1.007 -1.1950  0.1174 -0.0749
  965EMI     H218322   0.951   4.220   0.715  0.9751  0.1085 -2.7841
  965EMI     H418323   0.760   4.283   1.091 -1.8366  4.1363 -0.6602
  965EMI     H518324   0.869   4.065   1.089 -1.2786  1.1202  1.7480
  965EMI    C1'18325   0.763   4.422   0.838 -0.3922  1.0134  0.1010
  965EMI    H1'18326   0.747   4.425   0.730  0.6994  0.4644  2.3528
  965EMI    H1'18327   0.662   4.402   0.872  2.7143 -2.0501 -1.7477
  965EMI    H1'18328   0.804   4.509   0.891 -0.8268 -0.7573 -0.3540
  965EMI    C1"18329   0.994   3.977   0.848  0.4125 -0.3784 -0.3032
  965EMI    H1"18330   0.986   3.961   0.740  0.4711  0.5733  3.4982
  965EMI    H1"18331   0.935   3.898   0.901 -1.3775 -1.8162 -1.0021
  965EMI    C2"18332   1.140   3.973   0.889 -0.1870  0.1702 -0.1147
  965EMI    H2"18333   1.154   4.021   0.984 -0.7475  0.3902  1.3479
  965EMI    H2"18334   1.161   3.870   0.897  0.2299  0.6655 -1.9151
  965EMI    H2"18335   1.195   4.019   0.804  0.7701  1.0215 -1.2289
  966EMI     N118336   0.703   3.892   3.129  0.5450  0.2936  0.0909
  966EMI     C218337   0.587   3.859   3.064 -0.1115 -0.5216  0.0807
  966EMI     N318338   0.565   3.945   2.962  0.3543  0.3597 -0.2218
  966EMI     C418339   0.672   4.035   2.964  0.3116 -0.1775  0.0198
  966EMI     C518340   0.750   4.005   3.065  0.0526 -0.3685 -0.0085
  966EMI     H218341   0.532   3.770   3.072  1.5542  3.5897  1.0409
  966EMI     H418342   0.694   4.119   2.904  0.1713  0.6274  0.8534
  966EMI     H518343   0.844   4.067   3.088  0.0797  1.2751 -0.1838
  966EMI    C1'18344   0.455   3.943   2.863  0.1883  0.3806  0.5698
  966EMI    H1'18345   0.359   3.914   2.897 -0.6462 -1.4288 -0.6441
  966EMI    H1'18346   0.450   4.050   2.834  3.4843  0.7462 -1.1285
  966EMI    H1'18347   0.497   3.888   2.785  0.9329  1.6588 -0.4875
  966EMI    C1"18348   0.767   3.816   3.244 -0.5247 -0.7203  0.7676
  966EMI    H1"18349   0.877   3.821   3.238 -0.7026 -0.7510 -0.9006
  966EMI    H1"18350   0.727   3.719   3.249 -2.2991 -0.1002 -1.6026
  966EMI    C2"18351   0.729   3.888   3.374 -0.1577  0.1353  0.0513
  966EMI    H2"18352   0.780   3.984   3.375 -1.7503 -0.2698  1.7585
  966EMI    H2"18353   0.621   3.900   3.380  1.1110  2.2915 -0.4514
  966EMI    H2"18354   0.772   3.830   3.457 -1.3708  1.4310  0.9291
  967EMI     N118355   6.134   4.580   1.334 -0.2137  0.4690  0.2444
  967EMI     C218356   6.062   4.619   1.438 -0.0503 -0.1776 -0.8874
  967EMI     N318357   5.955   4.542   1.461  0.3429 -0.2145  0.2320
  967EMI     C418358   5.967   4.447   1.363 -0.6704  0.0491 -0.1903
  967EMI     C518359   6.075   4.468   1.290 -0.1834  0.4667 -0.2337
  967EMI     H218360   6.090   4.696   1.504 -1.2466  0.3114  1.0094
  967EMI     H418361   5.895   4.367   1.343  0.9075 -1.3588  1.7812
  967EMI     H518362   6.115   4.402   1.216 -2.8257  2.7562  2.4051
  967EMI    C1'18363   5.840   4.549   1.556  0.0667 -0.7401 -0.2900
  967EMI    H1'18364   5.837   4.446   1.592  0.6731 -1.9087  2.1221
  967EMI    H1'18365   5.866   4.624   1.633 -1.0109  0.8814 -3.0594
  967EMI    H1'18366   5.746   4.567   1.496 -0.1312 -0.3990  0.2454
  967EMI    C1"18367   6.251   4.637   1.262  0.1167  0.5218 -0.5553
  967EMI    H1"18368   6.285   4.570   1.184  1.8859  1.6820 -1.0604
  967EMI    H1"18369   6.339   4.653   1.330 -2.1396 -0.4941 -1.6369
  967EMI    C2"18370   6.201   4.766   1.189  0.6837  0.2519  0.8919
  967EMI    H2"18371   6.118   4.747   1.112 -1.2474 -0.7794 -2.8760
  967EMI    H2"18372   6.149   4.837   1.263  0.1546 -3.2412  0.8477
  967EMI    H2"18373   6.278   4.807   1.133 -1.3216 -1.9678  0.1924
  968EMI     N118374   6.125   2.725   4.341 -0.0200  0.1640  0.3104
  968EMI     C218375   5.999   2.755   4.336  0.6181 -0.8911  0.7514
  968EMI     N318376   5.923   2.656   4.395 -0.3588 -0.5218 -0.2426
  968EMI     C418377   6.014   2.562   4.433  0.4537  0.2424  0.5350
  968EMI     C518378   6.139   2.604   4.404 -0.3957  0.1606  0.4345
  968EMI     H218379   5.956   2.845   4.303 -0.9155 -0.3891  0.1764
  968EMI     H418380   5.993   2.464   4.471  0.8647 -1.0635  1.6681
  968EMI     H518381   6.231   2.548   4.405 -1.3595  2.8345 -1.6643
  968EMI    C1'18382   5.776   2.640   4.401  0.3701  0.5985  0.2090
  968EMI    H1'18383   5.743   2.694   4.491  0.7341  2.5059  1.7473
  968EMI    H1'18384   5.722   2.679   4.316 -2.6112 -0.9488  1.0436
  968EMI    H1'18385   5.752   2.541   4.434 -0.2804  2.3568 -0.9304
  968EMI    C1"18386   6.250   2.799   4.305  0.1698 -0.5007  0.3409
  968EMI    H1"18387   6.336   2.756   4.355 -1.0666  0.5948  1.6492
  968EMI    H1"18388   6.255   2.909   4.332 -0.4212 -0.6278  4.2533
  968EMI    C2"18389   6.274   2.800   4.163  0.3241 -0.2512 -0.0972
  968EMI    H2"18390   6.282   2.695   4.129  2.0065 -2.2811  1.5725
  968EMI    H2"18391   6.191   2.857   4.116 -1.1509 -0.9792 -0.2194
  968EMI    H2"18392   6.362   2.854   4.145  1.5067  2.0727 -0.1285
  969EMI     N118393   1.051   6.107   3.383 -0.0760  0.0608 -0.3051
  969EMI     C218394   1.155   6.193   3.366 -0.3112  0.6012 -0.3414
  969EMI     N318395   1.100   6.315   3.354  0.4699 -0.6506 -0.1169
  969EMI     C418396   0.964   6.307   3.374 -0.6506  0.0265  0.4908
  969EMI     C518397   0.932   6.175   3.385 -0.2045 -0.5775 -0.6482
  969EMI     H218398   1.258   6.172   3.337 -2.7272  0.9412 -0.6538
  969EMI     H418399   0.881   6.375   3.388 -1.0835  0.1984 -0.0720
  969EMI     H518400   0.826   6.132   3.398 -0.4730  2.5922 -1.0084
  969EMI    C1'18401   1.166   6.444   3.333  0.7271 -0.3465  0.5409
  969EMI    H1'18402   1.110   6.482   3.245 -1.9306 -0.3467 -0.8122
  969EMI    H1'18403   1.144   6.520   3.413 -0.6218  0.6375 -0.5650
  969EMI    H1'18404   1.274   6.433   3.299  0.2506 -0.7413  1.1852
  969EMI    C1"18405   1.070   5.961   3.411  0.4810  0.8575 -0.1384
  969EMI    H1"18406   1.175   5.948   3.437 -0.1551  0.7014  2.4227
  969EMI    H1"18407   1.040   5.897   3.325 -2.3240 -3.5833  3.2517
  969EMI    C2"18408   0.985   5.890   3.513 -0.3075 -0.5590 -0.4865
  969EMI    H2"18409   0.985   5.956   3.605  1.3014  1.0964  1.3665
  969EMI    H2"18410   0.885   5.880   3.481 -1.1696 -0.6090 -0.0354
  969EMI    H2"18411   1.024   5.793   3.531  0.6989 -1.1653  1.9752
  970EMI     N118412   3.536   5.582   1.142  0.2551 -0.2667  0.4638
  970EMI     C218413   3.550   5.577   1.010  0.0356 -0.1139 -0.7671
  970EMI     N318414   3.445   5.639   0.947 -0.3453  0.2829  0.0110
  970EMI     C418415   3.377   5.705   1.047 -0.4881  0.1508 -0.8298
  970EMI     C518416   3.430   5.670   1.170  0.1657  0.4787  0.4324
  970EMI     H218417   3.627   5.512   0.958  1.5706 -0.3050  0.0919
  970EMI     H418418   3.290   5.772   1.026 -0.6600 -1.4442  2.9179
  970EMI     H518419   3.385   5.695   1.262 -1.3499 -0.9880  0.2053
  970EMI    C1'18420   3.414   5.640   0.803  0.4291 -0.0698 -0.1349
  970EMI    H1'18421   3.480   5.575   0.749  0.8963  0.6940 -0.9140
  970EMI    H1'18422   3.310   5.617   0.795  0.4540 -2.0284  1.1732
  970EMI    H1'18423   3.429   5.743   0.760  2.6004 -0.5794  3.4002
  970EMI    C1"18424   3.615   5.519   1.244 -0.2645  0.1685 -0.0869
  970EMI    H1"18425   3.694   5.466   1.192 -0.9706  0.4985 -1.1210
  970EMI    H1"18426   3.549   5.466   1.308  0.5719  0.1427 -1.7883
  970EMI    C2"18427   3.683   5.630   1.329 -0.4319  0.0621  0.8255
  970EMI    H2"18428   3.761   5.588   1.398  1.2801 -0.1970  2.5197
  970EMI    H2"18429   3.735   5.693   1.252 -0.5004 -1.6433 -2.3167
  970EMI    H2"18430   3.617   5.695   1.378 -0.0730 -1.3295  1.2670
  971EMI     N118431   2.820   3.438   3.007 -0.4641  0.1267 -0.2774
  971EMI     C218432   2.929   3.508   2.965 -0.1163 -0.3240 -0.6150
  971EMI     N318433   3.015   3.526   3.066 -0.7593 -0.2150 -0.7139
  971EMI     C418434   2.958   3.465   3.180 -0.2443  0.2974  0.3736
  971EMI     C518435   2.840   3.407   3.140  0.3205  0.3301  0.6801
  971EMI     H218436   2.944   3.546   2.866 -1.7932 -0.3212  2.6697
  971EMI     H418437   2.992   3.443   3.277  1.8795 -1.7015 -0.6868
  971EMI     H518438   2.773   3.340   3.203 -0.9527  0.4402  2.4090
  971EMI    C1'18439   3.135   3.607   3.064 -0.0862 -0.0068  0.1984
  971EMI    H1'18440   3.095   3.711   3.071 -0.5271 -1.5825  1.5657
  971EMI    H1'18441   3.209   3.587   3.147  0.1752 -2.1943 -2.0746
  971EMI    H1'18442   3.192   3.598   2.976  0.2787  2.0761  0.3091
  971EMI    C1"18443   2.702   3.391   2.927  0.1208 -0.9409 -0.0921
  971EMI    H1"18444   2.638   3.341   3.001  0.7518  2.0528 -1.0824
  971EMI    H1"18445   2.734   3.333   2.840 -0.3099  0.8683 -0.2940
  971EMI    C2"18446   2.632   3.524   2.886 -0.1422  0.4203 -0.5098
  971EMI    H2"18447   2.543   3.510   2.829  1.8047 -0.9939  0.5290
  971EMI    H2"18448   2.601   3.567   2.981  3.5089  0.9379  0.3248
  971EMI    H2"18449   2.694   3.596   2.834 -0.8462 -1.6799  1.3538
  972EMI     N118450   0.332   3.584   5.728 -0.6186  0.2247  0.3731
  972EMI     C218451   0.421   3.686   5.699  0.7152  0.7758 -0.0120
  972EMI     N318452   0.491   3.646   5.597  0.2610 -0.1345  0.0291
  972EMI     C418453   0.444   3.522   5.558  1.1800  0.5313  0.3195
  972EMI     C518454   0.341   3.484   5.634 -0.6434  0.1103 -0.8072
  972EMI     H218455   0.438   3.772   5.760 -1.4997 -0.6613  0.8539
  972EMI     H418456   0.486   3.465   5.480 -1.3464  0.9787  1.9557
  972EMI     H518457   0.283   3.391   5.646  1.4736  1.4579  0.3491
  972EMI    C1'18458   0.603   3.714   5.535  0.3035 -0.5134  0.3998
  972EMI    H1'18459   0.581   3.813   5.518  0.1690 -1.1618 -0.2256
  972EMI    H1'18460   0.677   3.707   5.614 -2.8073 -0.6276  1.7382
  972EMI    H1'18461   0.629   3.664   5.440  0.0266 -4.5146  0.2214
  972EMI    C1"18462   0.246   3.573   5.849 -0.3743 -0.2438  0.0465
  972EMI    H1"18463   0.327   3.553   5.923  0.4287  2.5447  1.4783
  972EMI    H1"18464   0.176   3.496   5.837 -0.2850 -0.5029 -1.0515
  972EMI    C2"18465   0.168   3.697   5.894 -0.5486  0.3871 -0.5897
  972EMI    H2"18466   0.234   3.782   5.892 -0.5848 -2.2553  2.6401
  972EMI    H2"18467   0.086   3.724   5.818 -1.0066  2.7127  0.4636
  972EMI    H2"18468   0.128   3.674   5.989 -0.7504 -2.3413  2.6547
  973EMI     N118469   6.274   0.793   1.173 -0.7746 -0.2994  0.0282
  973EMI     C218470   6.259   0.695   1.262 -0.5422  0.2913 -0.5985
  973EMI     N318471   6.154   0.616   1.235  0.3344  0.0406 -0.8059
  973EMI     C418472   6.094   0.678   1.130  0.4543  0.5555  0.2928
  973EMI     C518473   6.168   0.777   1.087 -0.8124 -1.0126  0.1163
  973EMI     H218474   6.323   0.676   1.345 -1.3852  0.0772  1.4460
  973EMI     H418475   6.002   0.654   1.078  0.0162  2.3317  2.7192
  973EMI     H518476   6.149   0.839   0.995 -2.5323  0.5557  0.0049
  973EMI    C1'18477   6.091   0.510   1.311 -0.0936 -0.0582 -0.3211
  973EMI    H1'18478   6.004   0.480   1.258 -2.1391  0.3397  1.8602
  973EMI    H1'18479   6.167   0.437   1.303  1.8573 -1.2378  1.8915
  973EMI    H1'18480   6.071   0.529   1.417 -1.0422 -1.6143  1.2708
  973EMI    C1"18481   6.372   0.900   1.176 -0.0881 -0.1215  0.4493
  973EMI    H1"18482   6.411   0.914   1.075 -0.1312  0.6720 -2.9911
  973EMI    H1"18483   6.459   0.880   1.246  1.0649  2.0198  2.6225
  973EMI    C2"18484   6.307   1.032   1.223  0.1942  0.3110 -0.5259
  973EMI    H2"18485   6.236   1.081   1.156 -0.7545 -0.0429  0.3300
  973EMI    H2"18486   6.244   1.011   1.317  0.7027  0.2406  2.6188
  973EMI    H2"18487   6.382   1.103   1.253 -2.4484  1.0965  2.1383
  974EMI     N118488   2.549   5.966   5.071 -0.0867  0.4467  0.5080
  974EMI     C218489   2.489   6.003   5.187  0.0993  0.3481  0.6781
  974EMI     N318490   2.538   5.931   5.284  0.9316  0.5214 -0.5700
  974EMI     C418491   2.642   5.854   5.226  0.4920 -0.9324 -0.6489
  974EMI     C518492   2.642   5.868   5.093  0.3376 -0.0652 -0.0939
  974EMI     H218493   2.396   6.059   5.202  0.7628 -0.9316  1.5763
  974EMI     H418494   2.700   5.782   5.275  0.6860  1.8534  1.7062
  974EMI     H518495   2.699   5.815   5.022 -2.1317  0.4953  1.4420
  974EMI    C1'18496   2.513   5.920   5.425  0.8304  0.2601  0.0725
  974EMI    H1'18497   2.546   5.815   5.450  1.3120 -1.3705 -4.0405
  974EMI    H1'18498   2.566   6.000   5.473  2.5374 -1.7818 -0.2040
  974EMI    H1'18499   2.407   5.925   5.447 -3.1177 -0.5835 -2.0350
  974EMI    C1"18500   2.525   6.019   4.938 -0.5364  0.1090  0.3579
  974EMI    H1"18501   2.611   6.003   4.875  2.4762  0.7641 -0.9360
  974EMI    H1"18502   2.514   6.127   4.947  0.1541  0.9181 -0.8461
  974EMI    C2"18503   2.409   5.954   4.864  0.0695  0.4213  0.7644
  974EMI    H2"18504   2.400   5.979   4.758  0.5721 -0.0603  1.0533
  974EMI    H2"18505   2.418   5.840   4.870  0.3248 -0.4090  2.1098
  974EMI    H2"18506   2.320   5.974   4.930  0.0663  2.2163  1.6744
  975EMI     N118507   5.300   5.162   1.529  0.1920  0.2901  1.2441
  975EMI     C218508   5.196   5.098   1.586 -0.3366 -0.0643  0.3285
  975EMI     N318509   5.120   5.180   1.656  0.3115  0.7653 -0.4022
  975EMI     C418510   5.175   5.308   1.643 -0.2765 -0.4732 -0.0955
  975EMI     C518511   5.280   5.298   1.559  0.2051  0.1863 -0.3212
  975EMI     H218512   5.166   4.991   1.575  2.5608  1.8605  2.1941
  975EMI     H418513   5.144   5.400   1.702 -1.7393  1.8510 -0.2219
  975EMI     H518514   5.349   5.366   1.530  2.5217 -0.2203  2.2041
  975EMI    C1'18515   5.004   5.147   1.746  1.0784  0.4936 -0.0712
  975EMI    H1'18516   4.987   5.042   1.762 -0.3940 -2.1967  0.7323
  975EMI    H1'18517   5.021   5.202   1.838 -0.8119  1.6866 -0.2038
  975EMI    H1'18518   4.916   5.189   1.698  0.6297  1.0706 -2.4323
  975EMI    C1"18519   5.405   5.110   1.443  0.3024 -0.9806 -0.4962
  975EMI    H1"18520   5.409   5.006   1.441 -1.0105  3.5052 -0.5700
  975EMI    H1"18521   5.495   5.156   1.485  2.2650  0.4984  0.5443
  975EMI    C2"18522   5.400   5.169   1.302  0.8497 -0.1791  0.4448
  975EMI    H2"18523   5.395   5.278   1.301  0.1184 -1.3492  1.0194
  975EMI    H2"18524   5.487   5.136   1.241  4.8493  1.8620  0.1093
  975EMI    H2"18525   5.308   5.121   1.264 -1.5941 -1.3483  1.2746
  976EMI     N118526   3.746   4.173   1.482  0.9621 -0.2251  0.2412
  976EMI     C218527   3.642   4.216   1.407  0.0303  0.8651 -0.0417
  976EMI     N318528   3.614   4.136   1.307  0.3117  0.2875  0.1195
  976EMI     C418529   3.689   4.024   1.331 -0.5207  0.1716  0.2464
  976EMI     C518530   3.778   4.051   1.432  0.5644  0.5514 -0.1189
  976EMI     H218531   3.588   4.299   1.441 -0.7654 -3.8500  1.6098
  976EMI     H418532   3.686   3.939   1.269  3.1518  2.3549 -0.1407
  976EMI     H518533   3.861   3.995   1.456 -1.8078  3.3691 -1.3355
  976EMI    C1'18534   3.521   4.139   1.195  0.3656 -0.4086 -0.3924
  976EMI    H1'18535   3.494   4.239   1.168 -0.3121 -1.1354  0.0676
  976EMI    H1'18536   3.566   4.089   1.110 -0.6761  1.2114 -0.4775
  976EMI    H1'18537   3.436   4.085   1.222 -0.0701 -0.4686 -1.7844
  976EMI    C1"18538   3.813   4.242   1.600  0.5409 -0.2425  0.5472
  976EMI    H1"18539   3.832   4.188   1.686  0.6189 -1.6792 -2.3862
  976EMI    H1"18540   3.752   4.324   1.638 -0.0769 -3.6572 -0.8647
  976EMI    C2"18541   3.949   4.299   1.553  0.3281 -0.5487  0.3132
  976EMI    H2"18542   3.986   4.345   1.646 -2.0218  0.4172  3.1319
  976EMI    H2"18543   4.028   4.234   1.505  2.4924 -0.1109  0.4518
  976EMI    H2"18544   3.940   4.385   1.487 -2.4769 -0.8973  0.2140
  977EMI     N118545   2.741   3.958   5.831 -0.0375 -0.4280  0.5166
  977EMI     C218546   2.682   3.844   5.790 -0.0360 -0.5348  0.6688
  977EMI     N318547   2.767   3.778   5.712 -0.2563 -0.5857 -0.4550
  977EMI     C418548   2.877   3.853   5.687 -0.0029 -0.2514  0.0588
  977EMI     C518549   2.864   3.970   5.763  0.2946  0.8327  0.2173
  977EMI     H218550   2.586   3.798   5.818 -2.6396 -1.2578  0.9220
  977EMI     H418551   2.957   3.830   5.623  0.1297 -1.3745  2.4304
  977EMI     H518552   2.939   4.043   5.772  3.7879 -0.1201 -0.5802
  977EMI    C1'18553   2.751   3.641   5.661 -0.6631  0.2614  0.2977
  977EMI    H1'18554   2.646   3.629   5.634  0.1337 -1.9956  0.9084
  977EMI    H1'18555   2.806   3.639   5.574 -0.2638  2.0423  1.5202
  977EMI    H1'18556   2.796   3.564   5.732  3.2472  0.4563  0.5395
  977EMI    C1"18557   2.706   4.035   5.940  0.3645  0.1022 -0.6242
  977EMI    H1"18558   2.792   4.035   6.011  0.7931 -0.6967 -0.3201
  977EMI    H1"18559   2.622   3.983   5.993 -1.4401 -1.2525 -1.3427
  977EMI    C2"18560   2.665   4.173   5.907 -0.5230  0.0650 -0.3249
  977EMI    H2"18561   2.627   4.216   5.995  1.4856 -4.2079  4.0395
  977EMI    H2"18562   2.753   4.228   5.868 -0.3283 -1.8767  0.6546
  977EMI    H2"18563   2.583   4.186   5.841 -0.3714 -0.9887  3.3326
  978EMI     N118564   5.685   2.393   6.034  0.4722 -0.2277  0.1998
  978EMI     C218565   5.716   2.428   5.910 -0.1206  0.1309  0.3731
  978EMI     N318566   5.603   2.444   5.845  0.1315  0.4601 -0.3951
  978EMI     C418567   5.499   2.392   5.919  0.6766  0.1122  0.0670
  978EMI     C518568   5.547   2.359   6.037  0.5040 -1.1092  0.1959
  978EMI     H218569   5.817   2.445   5.871  0.3245 -1.6620  0.0366
  978EMI     H418570   5.396   2.377   5.882 -1.4798  1.8687 -1.9439
  978EMI     H518571   5.486   2.310   6.113 -0.4789 -0.9075  1.2901
  978EMI    C1'18572   5.581   2.476   5.702 -0.5510  0.8230 -0.3583
  978EMI    H1'18573   5.500   2.411   5.661 -1.1326 -0.8940 -0.9572
  978EMI    H1'18574   5.565   2.583   5.688 -0.9135  0.2755 -2.2089
  978EMI    H1'18575   5.680   2.440   5.665 -0.7705  1.2725  0.0086
  978EMI    C1"18576   5.777   2.361   6.147  0.1190 -0.2413 -0.4467
  978EMI    H1"18577   5.721   2.391   6.241 -0.5764 -0.6141  2.2915
  978EMI    H1"18578   5.855   2.432   6.126 -1.1538 -0.4039  1.0869
  978EMI    C2"18579   5.816   2.213   6.140  0.0339 -0.9961  0.2596
  978EMI    H2"18580   5.737   2.151   6.187 -2.7504 -0.3963  0.2274
  978EMI    H2"18581   5.823   2.179   6.041  1.5705  0.2405 -0.0387
  978EMI    H2"18582   5.909   2.203   6.191  0.1428  0.2025 -0.9142
  979EMI     N118583   6.285   1.242   5.572 -0.1765  0.5781 -0.1526
  979EMI     C218584   6.311   1.274   5.442 -0.0242 -0.4283 -0.3141
  979EMI     N318585   6.328   1.407   5.431  0.3274 -0.3988 -0.4599
  979EMI     C418586   6.307   1.456   5.555  0.0557  0.2559 -0.5214
  979EMI     C518587   6.282   1.357   5.641  0.5973 -0.0449 -0.3547
  979EMI     H218588   6.305   1.205   5.366 -0.5744  0.6673  0.0047
  979EMI     H418589   6.313   1.565   5.575 -0.8052 -0.9801 -0.5761
  979EMI     H518590   6.260   1.366   5.744 -0.8568 -1.4390 -2.4036
  979EMI    C1'18591   6.375   1.495   5.322  0.1253  0.2918  0.1990
  979EMI    H1'18592   6.313   1.581   5.326  0.7430  1.2327 -0.0737
  979EMI    H1'18593   6.477   1.531   5.332 -0.4376 -0.5643  0.8122
  979EMI    H1'18594   6.376   1.444   5.228  1.2408 -1.9161 -1.5613
  979EMI    C1"18595   6.259   1.107   5.635  0.1084  0.0941  0.5502
  979EMI    H1"18596   6.164   1.068   5.594 -1.2665  1.5391  0.3509
  979EMI    H1"18597   6.258   1.129   5.738 -2.8683  3.5968 -1.0911
  979EMI    C2"18598   6.366   0.997   5.613 -0.3172  0.5583  0.0091
  979EMI    H2"18599   6.338   0.901   5.637 -1.0170 -2.1987  2.9591
  979EMI    H2"18600   6.401   0.989   5.510 -0.5980  0.4221 -1.3619
  979EMI    H2"18601   6.452   1.020   5.676  4.2639  2.2311 -1.8164
  980EMI     N118602   1.210   1.019   4.000 -0.1362 -0.0585 -0.1424
  980EMI     C218603   1.158   1.007   3.876  0.1526 -0.3128 -0.2216
  980EMI     N318604   1.038   0.951   3.881 -0.2168 -0.5472 -0.8915
  980EMI     C418605   1.009   0.928   4.017 -0.7045 -0.1418  0.2742
  980EMI     C518606   1.116   0.962   4.089 -0.4567  1.1135  0.9546
  980EMI     H218607   1.204   1.026   3.785 -0.4033 -1.2839 -0.6380
  980EMI     H418608   0.922   0.876   4.055  1.0832 -0.4898  0.0973
  980EMI     H518609   1.127   0.952   4.196 -0.4098  0.9911  0.0523
  980EMI    C1'18610   0.939   0.914   3.776 -0.0599 -0.0700 -0.7332
  980EMI    H1'18611   0.984   0.919   3.677 -3.3612 -1.7215 -2.0330
  980EMI    H1'18612   0.889   0.826   3.813 -2.1627 -3.6168  1.4408
  980EMI    H1'18613   0.869   0.997   3.784 -0.9262  0.7137  1.7851
  980EMI    C1"18614   1.339   1.071   4.047  0.4985 -0.1994  0.0444
  980EMI    H1"18615   1.411   1.075   3.961  2.0497  0.7344 -0.6036
  980EMI    H1"18616   1.379   0.996   4.119  2.3721  0.6698 -1.5158
  980EMI    C2"18617   1.320   1.220   4.108  0.5149 -0.0423  0.4085
  980EMI    H2"18618   1.263   1.214   4.194 -0.0051 -0.0384 -2.9974
  980EMI    H2"18619   1.419   1.248   4.138  0.2615 -0.3666 -2.4213
  980EMI    H2"18620   1.274   1.282   4.033  0.6926  2.0627 -0.8307
  981EMI     N118621   5.710   3.382   1.863  0.3701  0.2359 -0.1444
  981EMI     C218622   5.728   3.386   2.000  0.6160 -0.4122  0.1098
  981EMI     N318623   5.614   3.417   2.058 -0.5932 -0.4749  0.5077
  981EMI     C418624   5.518   3.416   1.959 -0.0766  0.4201  0.3859
  981EMI     C518625   5.575   3.398   1.836  0.7667  0.4850  0.4833
  981EMI     H218626   5.817   3.362   2.064  5.0610  3.3984 -0.3448
  981EMI     H418627   5.416   3.424   1.985  0.8497 -1.7360  0.9919
  981EMI     H518628   5.525   3.398   1.737 -0.5411 -1.2407 -0.1378
  981EMI    C1'18629   5.578   3.421   2.203  0.0869 -0.4103 -0.4138
  981EMI    H1'18630   5.632   3.349   2.264  0.1721  1.6937  0.5189
  981EMI    H1'18631   5.595   3.516   2.238 -1.5702 -2.0507 -1.5197
  981EMI    H1'18632   5.470   3.405   2.223 -0.7114  2.5218  1.6091
  981EMI    C1"18633   5.816   3.361   1.759  0.0525 -0.4544  0.7939
  981EMI    H1"18634   5.879   3.457   1.742 -0.3283  0.9766  1.3732
  981EMI    H1"18635   5.761   3.341   1.667 -0.5616 -1.9009 -0.3917
  981EMI    C2"18636   5.907   3.250   1.802 -0.1362  0.0563  0.8254
  981EMI    H2"18637   5.845   3.165   1.791  1.5189  0.8266 -1.5624
  981EMI    H2"18638   5.996   3.238   1.739 -2.6017  1.1844  0.1611
  981EMI    H2"18639   5.940   3.259   1.904 -0.4404 -0.1931 -1.4193
  982EMI     N118640   0.316   0.927   2.685 -0.3165 -0.0997  0.1676
  982EMI     C218641   0.341   0.886   2.810  0.9640  0.3924  0.2495
  982EMI     N318642   0.315   0.756   2.831  0.1518  0.5289  0.5526
  982EMI     C418643   0.270   0.713   2.711 -0.2902 -0.4133  0.0505
  982EMI     C518644   0.255   0.814   2.626  0.2288  0.1933  0.1043
  982EMI     H218645   0.374   0.953   2.892 -2.8232  2.9076 -2.5555
  982EMI     H418646   0.233   0.616   2.689 -2.9127  0.5161 -0.8449
  982EMI     H518647   0.212   0.814   2.525  1.5445 -0.7364 -0.3233
  982EMI    C1'18648   0.348   0.655   2.933 -0.5674 -0.0154  0.1737
  982EMI    H1'18649   0.332   0.555   2.900  1.4381  0.0107 -1.9142
  982EMI    H1'18650   0.454   0.646   2.956 -0.1546 -0.9205  0.8706
  982EMI    H1'18651   0.288   0.664   3.031 -2.1422 -0.5698  3.3785
  982EMI    C1"18652   0.324   1.064   2.633 -0.0529  0.0011  0.2327
  982EMI    H1"18653   0.316   1.129   2.716  1.9763 -0.6470 -0.4414
  982EMI    H1"18654   0.245   1.097   2.558 -2.2554  1.1372  0.8659
  982EMI    C2"18655   0.469   1.075   2.570 -0.4254  0.0010 -0.4425
  982EMI    H2"18656   0.484   1.174   2.523  1.5717 -0.5411  1.7880
  982EMI    H2"18657   0.546   1.051   2.644  0.9098 -1.1095  0.2325
  982EMI    H2"18658   0.473   1.000   2.493 -0.9057 -0.4774 -1.0917
  983EMI     N118659   0.967   3.403   3.606 -1.0162  0.0719  0.7981
  983EMI     C218660   0.968   3.500   3.698 -0.1446 -0.4709  0.2899
  983EMI     N318661   0.881   3.475   3.801  0.0223  0.5008  0.0182
  983EMI     C418662   0.832   3.351   3.779 -0.1781  0.6759  0.9381
  983EMI     C518663   0.886   3.305   3.660  0.4937 -0.5253  0.1348
  983EMI     H218664   1.009   3.599   3.683  0.7612 -1.5035 -0.5900
  983EMI     H418665   0.769   3.298   3.846  0.4251  1.7484 -0.8044
  983EMI     H518666   0.879   3.208   3.616  0.9733  0.9654  1.6200
  983EMI    C1'18667   0.829   3.553   3.913  0.1664 -0.1392  0.0753
  983EMI    H1'18668   0.737   3.600   3.882 -1.1173  2.1375 -0.6573
  983EMI    H1'18669   0.798   3.487   3.986 -0.4675 -0.2296 -0.7381
  983EMI    H1'18670   0.888   3.637   3.952  1.0238 -1.2876  0.7804
  983EMI    C1"18671   1.042   3.381   3.480 -0.6001  0.3949 -0.4154
  983EMI    H1"18672   1.041   3.276   3.449  2.2725  0.8345  1.3645
  983EMI    H1"18673   1.150   3.405   3.493 -0.8202  2.5308 -1.9916
  983EMI    C2"18674   0.991   3.467   3.370  0.1868  0.0829  0.8784
  983EMI    H2"18675   0.973   3.566   3.409  0.4920 -2.0046 -0.1025
  983EMI    H2"18676   1.073   3.464   3.292  0.6776  1.4431  1.0539
  983EMI    H2"18677   0.902   3.426   3.332 -0.4654  2.6445  1.1909
  984EMI     N118678   1.999   3.982   0.125  0.1523  0.1838  0.4909
  984EMI     C218679   2.081   4.085   0.097 -0.3504  0.1389  0.5113
  984EMI     N318680   2.191   4.043   0.037  0.4445  0.6915  0.5954
  984EMI     C418681   2.193   3.903   0.044  0.5487 -0.1923 -0.1461
  984EMI     C518682   2.073   3.869   0.103  0.4750  0.4534  0.8394
  984EMI     H218683   2.058   4.196   0.099 -1.1821  1.4320 -0.3922
  984EMI     H418684   2.274   3.839   0.004  0.4232 -3.7639  1.6657
  984EMI     H518685   2.036   3.771   0.130  0.5192 -0.3221 -2.3827
  984EMI    C1'18686   2.321   4.107  -0.006  0.2851 -0.3565  0.3985
  984EMI    H1'18687   2.396   4.036  -0.011 -1.4480  0.5364 -0.3642
  984EMI    H1'18688   2.302   4.150  -0.105  0.2548  2.0315  1.3849
  984EMI    H1'18689   2.343   4.189   0.067  0.6941  1.5666 -0.7964
  984EMI    C1"18690   1.867   3.971   0.176  0.2673 -0.2673 -0.2541
  984EMI    H1"18691   1.871   3.952   0.282 -0.0860 -2.3741 -2.7151
  984EMI    H1"18692   1.823   3.883   0.129  0.2300 -0.3280  0.4845
  984EMI    C2"18693   1.777   4.083   0.129 -0.2603  0.6806  0.3749
  984EMI    H2"18694   1.765   4.088   0.022 -1.7442  0.3089  1.9520
  984EMI    H2"18695   1.675   4.074   0.174 -0.8863  0.4634  0.4804
  984EMI    H2"18696   1.824   4.180   0.158 -0.2493  2.7261 -2.2984
  985EMI     N118697   4.060   4.529   5.433 -0.6758 -0.5441 -0.1579
  985EMI     C218698   4.090   4.417   5.371 -0.8658  0.1031 -0.0341
  985EMI     N318699   4.004   4.321   5.412 -0.0116  0.1126 -0.1116
  985EMI     C418700   3.915   4.375   5.498 -0.5370  0.2312 -0.4770
  985EMI     C518701   3.954   4.505   5.511 -0.6347 -0.4148 -0.4505
  985EMI     H218702   4.174   4.408   5.303  2.6341  1.5894 -0.2689
  985EMI     H418703   3.838   4.320   5.550  2.9261  0.0153 -0.1328
  985EMI     H518704   3.903   4.573   5.580 -0.2620  0.6439 -0.1154
  985EMI    C1'18705   3.997   4.177   5.367 -1.0116 -0.0794 -0.6551
  985EMI    H1'18706   3.933   4.123   5.430 -2.5356  1.4074  1.3884
  985EMI    H1'18707   3.963   4.175   5.259 -2.0315  2.2642  0.4557
  985EMI    H1'18708   4.087   4.123   5.381  0.9330  3.1304  0.8478
  985EMI    C1"18709   4.125   4.665   5.434 -0.7458 -0.2828  0.3286
  985EMI    H1"18710   4.102   4.714   5.530 -0.5396  1.5981  3.0116
  985EMI    H1"18711   4.101   4.726   5.341 -0.4812 -2.1366 -0.4685
  985EMI    C2"18712   4.273   4.654   5.428 -0.2760  0.1824  0.4772
  985EMI    H2"18713   4.301   4.612   5.527  2.4781  2.9909  0.9375
  985EMI    H2"18714   4.298   4.594   5.346 -0.1746  0.6634 -0.6114
  985EMI    H2"18715   4.315   4.752   5.418  0.7455  3.7869 -1.3034
  986EMI     N118716   3.026   2.087   0.895  0.1943  0.0630  0.0242
  986EMI     C218717   2.982   2.090   1.020 -0.0165 -0.1714 -1.3570
  986EMI     N318718   3.082   2.112   1.108  0.2972 -0.7874  0.0568
  986EMI     C418719   3.197   2.118   1.035 -0.0970  0.3196  0.1274
  986EMI     C518720   3.164   2.109   0.900  1.3071  0.2898 -0.4611
  986EMI     H218721   2.884   2.088   1.062  2.6921 -2.3458  3.7025
  986EMI     H418722   3.296   2.140   1.078  0.6308  0.0692 -0.1119
  986EMI     H518723   3.231   2.119   0.813 -2.8972  2.8796  1.7710
  986EMI    C1'18724   3.086   2.146   1.250  0.2443  0.4526  0.4015
  986EMI    H1'18725   3.098   2.263   1.261 -0.5147  1.2308  0.1078
  986EMI    H1'18726   3.012   2.109   1.311  2.7378  0.5426 -0.8572
  986EMI    H1'18727   3.180   2.099   1.286 -0.6122  0.2639 -1.0987
  986EMI    C1"18728   2.949   2.080   0.769 -0.1723 -0.3021 -0.2143
  986EMI    H1"18729   2.843   2.063   0.798  1.0316 -0.0977  1.2902
  986EMI    H1"18730   2.987   1.994   0.717 -2.2299  1.8704  0.1591
  986EMI    C2"18731   2.965   2.192   0.667  0.3214  0.5340  0.1577
  986EMI    H2"18732   2.892   2.171   0.588 -1.5617 -1.8296  3.3016
  986EMI    H2"18733   2.930   2.288   0.710 -1.7654  0.4854 -1.2015
  986EMI    H2"18734   3.070   2.205   0.635 -0.3951  4.2386 -2.2693
  987EMI     N118735   1.412   2.620   5.872  0.1680  0.1294  0.1903
  987EMI     C218736   1.505   2.660   5.957 -0.9277 -0.6119 -0.0434
  987EMI     N318737   1.457   2.665   6.083  0.0679  0.7648  0.3738
  987EMI     C418738   1.328   2.622   6.070 -0.4955 -0.4026 -0.8684
  987EMI     C518739   1.300   2.597   5.942 -0.8164 -0.4828  0.5774
  987EMI     H218740   1.612   2.675   5.931  0.0688 -0.8924  0.2667
  987EMI     H418741   1.258   2.612   6.151 -0.3068 -0.1428 -2.8533
  987EMI     H518742   1.210   2.558   5.891 -0.5924 -2.9137  0.3601
  987EMI    C1'18743   1.522   2.684   6.207 -0.2359  0.0277 -0.1651
  987EMI    H1'18744   1.457   2.728   6.283 -2.1191  0.4921 -1.7062
  987EMI    H1'18745   1.549   2.586   6.244 -0.8136  1.4617 -2.2715
  987EMI    H1'18746   1.617   2.738   6.191 -1.6254  0.0619 -1.7230
  987EMI    C1"18747   1.424   2.611   5.726  0.0648  0.1812 -0.2777
  987EMI    H1"18748   1.372   2.526   5.692 -1.1152  3.6788  0.3715
  987EMI    H1"18749   1.525   2.623   5.692 -0.8946  0.6093 -1.0486
  987EMI    C2"18750   1.347   2.725   5.659 -0.7048  0.0931 -0.3522
  987EMI    H2"18751   1.335   2.696   5.556 -2.9040  0.2141  0.9536
  987EMI    H2"18752   1.251   2.744   5.701  0.8843  2.0276 -0.9272
  987EMI    H2"18753   1.402   2.820   5.656 -1.9890  0.1192  0.4774
  988EMI     N118754   0.105   1.496   4.611 -0.2716  0.3524  0.2005
  988EMI     C218755   0.177   1.569   4.521 -0.1826 -0.4291  0.1159
  988EMI     N318756   0.126   1.551   4.398  0.3066 -0.5549  0.5761
  988EMI     C418757   0.012   1.469   4.410  0.7746 -0.1345 -0.2980
  988EMI     C518758   0.001   1.437   4.541  0.0477  0.0195  0.0636
  988EMI     H218759   0.269   1.616   4.539 -0.6431  1.8342 -1.0849
  988EMI     H418760  -0.059   1.440   4.331  0.1200  0.4986  0.2994
  988EMI     H518761  -0.078   1.379   4.592  0.8585  3.9115  0.5796
  988EMI    C1'18762   0.188   1.588   4.271 -0.6968 -0.5099 -0.3305
  988EMI    H1'18763   0.294   1.556   4.270 -1.9343  2.3030  2.1228
  988EMI    H1'18764   0.128   1.547   4.187 -0.1369 -0.1758  0.6874
  988EMI    H1'18765   0.189   1.698   4.250  0.5059 -1.3793  0.4203
  988EMI    C1"18766   0.134   1.458   4.751  0.0485  0.6093 -1.2655
  988EMI    H1"18767   0.045   1.479   4.809 -3.3836  0.1180  0.6645
  988EMI    H1"18768   0.212   1.520   4.793  0.6604 -0.6006  0.2829
  988EMI    C2"18769   0.169   1.305   4.756  1.1665  0.3722 -0.9107
  988EMI    H2"18770   0.271   1.301   4.714  2.3916  0.6670  0.9262
  988EMI    H2"18771   0.189   1.284   4.863 -0.2839  3.7071 -0.5396
  988EMI    H2"18772   0.096   1.240   4.716 -0.4917  1.4698 -1.2045
  989EMI     N118773   0.433   1.593   0.179 -0.5048 -0.6005  0.2968
  989EMI     C218774   0.499   1.477   0.188 -0.3415  0.1833 -0.7290
  989EMI     N318775   0.414   1.380   0.134 -0.2066 -0.3821 -0.1884
  989EMI     C418776   0.291   1.446   0.099 -0.2897 -0.0009  0.0748
  989EMI     C518777   0.307   1.574   0.129  0.4956  0.2449  0.0795
  989EMI     H218778   0.602   1.455   0.218 -0.7842 -0.3014  2.0466
  989EMI     H418779   0.195   1.420   0.051  0.1621  1.9210  0.2385
  989EMI     H518780   0.226   1.651   0.125  0.6317  0.8021  2.7438
  989EMI    C1'18781   0.432   1.238   0.102  0.1362  0.4291  0.2512
  989EMI    H1'18782   0.333   1.194   0.088  0.3760 -0.5834  0.4559
  989EMI    H1'18783   0.472   1.225   0.001  1.4573  0.6152 -1.4096
  989EMI    H1'18784   0.500   1.194   0.180 -0.5026  0.0629 -0.2385
  989EMI    C1"18785   0.495   1.727   0.192  0.6424 -0.7317  0.3713
  989EMI    H1"18786   0.517   1.732   0.298 -0.4917  0.8627 -1.3487
  989EMI    H1"18787   0.415   1.804   0.168  2.1796  0.8199  1.7758
  989EMI    C2"18788   0.621   1.737   0.106  0.2845  0.2736 -0.6817
  989EMI    H2"18789   0.611   1.681   0.016 -0.6063 -1.4888 -1.8614
  989EMI    H2"18790   0.640   1.840   0.078 -1.9617  1.0128 -0.6047
  989EMI    H2"18791   0.705   1.691   0.158 -3.7812  0.4804  2.1553
  990EMI     N118792   6.307   2.962   3.840  0.1024  0.0426  0.3346
  990EMI     C218793   6.259   2.838   3.819 -0.2631 -0.2840  0.1985
  990EMI     N318794   6.134   2.823   3.867  0.5372  0.0277  0.3525
  990EMI     C418795   6.088   2.953   3.901  0.1102  0.4298 -0.1233
  990EMI     C518796   6.191   3.036   3.889 -0.0182 -0.7708 -0.2964
  990EMI     H218797   6.321   2.749   3.784 -1.9092 -4.3275 -0.8564
  990EMI     H418798   5.994   2.978   3.945  1.0906  1.3292  0.8712
  990EMI     H518799   6.185   3.137   3.915  1.9165 -3.5572  1.1566
  990EMI    C1'18800   6.055   2.704   3.875  0.6778  0.9675 -0.3556
  990EMI    H1'18801   6.089   2.626   3.802 -0.0342  3.0084  0.7188
  990EMI    H1'18802   6.055   2.681   3.981 -0.7438 -0.3166  0.4256
  990EMI    H1'18803   5.951   2.744   3.854 -0.8989 -1.0226  0.1961
  990EMI    C1"18804   6.437   3.028   3.803 -1.3888  0.3113  0.0895
  990EMI    H1"18805   6.455   3.124   3.857 -2.6055 -1.4133  2.7003
  990EMI    H1"18806   6.438   3.052   3.694 -1.5141 -0.4726 -1.2505
  990EMI    C2"18807   6.547   2.929   3.844 -0.1475  0.3811  0.0153
  990EMI    H2"18808   6.536   2.838   3.789 -1.5038  0.7784  0.2707
  990EMI    H2"18809   6.654   2.965   3.828 -0.7369  0.6931  1.2847
  990EMI    H2"18810   6.535   2.904   3.948 -0.7255  2.0449  1.7767
  991EMI     N118811   0.229   1.341   5.851  0.4710 -0.0516 -0.2377
  991EMI     C218812   0.235   1.471   5.813  0.6070 -0.4343  0.5338
  991EMI     N318813   0.187   1.545   5.919 -0.7116  1.0477 -0.1282
  991EMI     C418814   0.155   1.454   6.021 -0.1998  1.0222  0.0208
  991EMI     C518815   0.178   1.331   5.976 -1.1707  0.4465 -0.1778
  991EMI     H218816   0.271   1.511   5.722  0.6551  1.1775  1.0538
  991EMI     H418817   0.117   1.493   6.118 -0.6947  1.7389 -1.5238
  991EMI     H518818   0.160   1.238   6.021  2.4266  2.1325 -0.7184
  991EMI    C1'18819   0.188   1.687   5.948 -0.9893 -0.3206 -0.2405
  991EMI    H1'18820   0.252   1.738   5.874 -2.5359  1.5067  0.4860
  991EMI    H1'18821   0.092   1.732   5.969 -1.0320 -2.5078  2.2529
  991EMI    H1'18822   0.230   1.692   6.042  0.2674  0.5362  0.2850
  991EMI    C1"18823   0.271   1.221   5.772 -0.7279 -0.3116  0.9844
  991EMI    H1"18824   0.185   1.158   5.758 -1.2239  1.9939 -0.0672
  991EMI    H1"18825   0.347   1.167   5.825 -0.2573 -3.0329  2.3792
  991EMI    C2"18826   0.328   1.247   5.630  0.1569  0.4070 -0.2073
  991EMI    H2"18827   0.361   1.156   5.588 -3.6201 -0.6793  2.8221
  991EMI    H2"18828   0.257   1.285   5.550  1.1108 -2.9951 -1.0375
  991EMI    H2"18829   0.413   1.318   5.641  1.7917 -1.3160 -0.2132
  992EMI     N118830   1.775   4.144   4.416 -0.1212 -0.3201  0.2482
  992EMI     C218831   1.659   4.203   4.456  0.0116 -0.4290  0.3830
  992EMI     N318832   1.564   4.110   4.473  0.4204  0.1419 -0.3429
  992EMI     C418833   1.619   3.988   4.436 -0.2515 -0.4473 -0.1280
  992EMI     C518834   1.747   4.013   4.399 -0.9562  0.2281 -0.2133
  992EMI     H218835   1.627   4.310   4.449 -0.3481  0.4079 -0.0584
  992EMI     H418836   1.563   3.899   4.430  2.7384  2.7793  0.5275
  992EMI     H518837   1.817   3.930   4.374  2.1745 -1.1705 -1.1736
  992EMI    C1'18838   1.424   4.117   4.521 -0.5065  0.4903 -0.0475
  992EMI    H1'18839   1.363   4.157   4.438  0.4790 -0.7699 -1.7898
  992EMI    H1'18840   1.390   4.015   4.524  0.8468  0.6189  1.8523
  992EMI    H1'18841   1.417   4.179   4.606  0.4501  1.1515 -0.1471
  992EMI    C1"18842   1.912   4.187   4.374  0.0613 -0.3562 -0.9832
  992EMI    H1"18843   1.914   4.279   4.318  0.4011  0.0482  0.2129
  992EMI    H1"18844   1.961   4.119   4.305 -0.4620 -2.0121  0.6502
  992EMI    C2"18845   1.997   4.201   4.499 -0.0657 -0.0209 -0.0173
  992EMI    H2"18846   1.961   4.282   4.562 -2.1712  2.4076 -1.2537
  992EMI    H2"18847   2.008   4.105   4.554  3.4863 -1.5508 -0.0192
  992EMI    H2"18848   2.094   4.244   4.457  2.3607  3.2260  1.2088
  993EMI     N118849   0.428   1.641   1.846 -0.0502 -0.9010  0.4961
  993EMI     C218850   0.458   1.626   1.713  0.1420 -0.1087  0.2824
  993EMI     N318851   0.456   1.491   1.688 -0.7663  0.0394 -0.1050
  993EMI     C418852   0.430   1.429   1.805  0.4175  0.4747  0.7863
  993EMI     C518853   0.410   1.520   1.904 -0.3270  1.0939 -0.2398
  993EMI     H218854   0.480   1.702   1.640 -2.3193  0.2521 -1.0292
  993EMI     H418855   0.444   1.319   1.804  2.0087 -1.3184 -1.2158
  993EMI     H518856   0.373   1.504   2.006  0.0804  1.1693  1.4575
  993EMI    C1'18857   0.513   1.415   1.570  0.6262 -0.5202 -0.1678
  993EMI    H1'18858   0.455   1.327   1.548  1.3597  0.2468 -0.7687
  993EMI    H1'18859   0.503   1.470   1.485  2.0220 -1.4427  0.2163
  993EMI    H1'18860   0.613   1.399   1.600 -0.4181  0.6666 -1.4375
  993EMI    C1"18861   0.412   1.772   1.924  0.3398 -0.8252  0.7473
  993EMI    H1"18862   0.482   1.848   1.876 -0.0967 -1.1999  1.6465
  993EMI    H1"18863   0.443   1.762   2.028  0.6743 -0.4520 -0.8209
  993EMI    C2"18864   0.264   1.811   1.915  0.1080  0.2582  0.0255
  993EMI    H2"18865   0.245   1.893   1.976 -1.2377 -1.3197 -1.8430
  993EMI    H2"18866   0.239   1.837   1.816 -0.5310 -0.3487  0.3575
  993EMI    H2"18867   0.196   1.732   1.950 -0.1268 -0.7678  0.5887
  994EMI     N118868   6.269   2.391   1.893 -0.6847 -0.4850 -0.1650
  994EMI     C218869   6.272   2.451   1.771 -0.6989  0.3693  0.1575
  994EMI     N318870   6.359   2.392   1.691 -0.3512 -0.0027  0.2953
  994EMI     C418871   6.422   2.299   1.770  0.2868 -0.2786 -0.0415
  994EMI     C518872   6.367   2.295   1.895  0.9696 -0.4617  0.1270
  994EMI     H218873   6.220   2.542   1.742  2.6981  0.0423 -1.2075
  994EMI     H418874   6.509   2.240   1.739  0.0613 -2.1571 -1.9728
  994EMI     H518875   6.401   2.238   1.979  1.2927  2.3372  0.5076
  994EMI    C1'18876   6.404   2.423   1.557  0.0195 -0.2033  0.6486
  994EMI    H1'18877   6.328   2.476   1.502  0.7407  0.1823 -1.3318
  994EMI    H1'18878   6.498   2.484   1.564  1.1341  0.5745 -0.5272
  994EMI    H1'18879   6.433   2.327   1.505  1.8953 -0.4324 -0.8277
  994EMI    C1"18880   6.170   2.417   2.000 -0.2262 -0.4126  0.8110
  994EMI    H1"18881   6.143   2.324   2.052  1.0511  1.4582  2.4046
  994EMI    H1"18882   6.076   2.440   1.955 -0.1521 -1.5542 -0.5325
  994EMI    C2"18883   6.219   2.526   2.103  0.2298  0.2924 -0.2758
  994EMI    H2"18884   6.155   2.526   2.188 -0.3425  1.6418  1.8309
  994EMI    H2"18885   6.321   2.510   2.126  0.7215  2.7316  2.0709
  994EMI    H2"18886   6.207   2.623   2.061  0.7136 -2.5954 -0.2274
  995EMI     N118887   4.205   2.312   3.787  0.6166 -0.6169  0.9604
  995EMI     C218888   4.253   2.433   3.811 -0.4044  0.4771  0.0833
  995EMI     N318889   4.346   2.432   3.907  0.1384 -0.0434 -0.0435
  995EMI     C418890   4.357   2.301   3.945  0.5459 -0.4736  0.5210
  995EMI     C518891   4.274   2.224   3.869  0.9789  0.0900  0.3321
  995EMI     H218892   4.235   2.520   3.750 -0.6015  0.8574  0.3670
  995EMI     H418893   4.417   2.258   4.028  1.3580 -0.9967 -1.8106
  995EMI     H518894   4.253   2.115   3.879  0.0347  0.1321  1.1036
  995EMI    C1'18895   4.425   2.544   3.962 -0.2696  0.3637 -0.4175
  995EMI    H1'18896   4.360   2.608   4.018  1.6969 -2.4629 -1.7896
  995EMI    H1'18897   4.508   2.506   4.021 -0.6457  0.4739  0.0834
  995EMI    H1'18898   4.461   2.603   3.881 -2.4626 -0.1964  1.3746
  995EMI    C1"18899   4.131   2.268   3.673  0.2863 -0.6250  0.5414
  995EMI    H1"18900   4.043   2.337   3.647 -1.8128 -0.5516 -1.5553
  995EMI    H1"18901   4.086   2.169   3.691  2.7662 -1.3368 -0.1710
  995EMI    C2"18902   4.216   2.277   3.547 -0.4097 -0.2295 -0.4113
  995EMI    H2"18903   4.154   2.267   3.459 -1.2034  0.4819  0.5148
  995EMI    H2"18904   4.285   2.363   3.554  2.5164  1.1091 -1.0258
  995EMI    H2"18905   4.294   2.198   3.548 -0.4594 -2.0707 -2.5957
  996EMI     N118906   3.529   3.281   5.175  0.1853  0.2435 -0.7474
  996EMI     C218907   3.420   3.224   5.224 -0.1134 -0.4334 -0.0603
  996EMI     N318908   3.306   3.297   5.201  1.0690 -0.9623  0.9216
  996EMI     C418909   3.355   3.405   5.124 -0.0041 -1.1759  0.0620
  996EMI     C518910   3.491   3.392   5.100 -0.0616  0.8016 -0.5553
  996EMI     H218911   3.421   3.122   5.264 -0.7648  2.2010  2.9936
  996EMI     H418912   3.279   3.480   5.091  0.6892  0.0405 -0.5053
  996EMI     H518913   3.557   3.447   5.038 -0.8316 -0.9519 -0.1104
  996EMI    C1'18914   3.167   3.273   5.232 -0.5276 -0.5295 -0.2641
  996EMI    H1'18915   3.145   3.319   5.333  0.7089  0.5626 -0.8444
  996EMI    H1'18916   3.098   3.334   5.170 -2.3444 -1.0079 -1.1883
  996EMI    H1'18917   3.147   3.165   5.235  1.0373  0.1556  3.0781
  996EMI    C1"18918   3.670   3.237   5.179  0.4110  0.1538  0.5427
  996EMI    H1"18919   3.720   3.272   5.084  1.8425  0.5641 -1.7408
  996EMI    H1"18920   3.679   3.127   5.168  1.1922  0.9477 -2.8135
  996EMI    C2"18921   3.750   3.275   5.302  0.0876  0.2559 -0.0628
  996EMI    H2"18922   3.844   3.228   5.296 -0.7593 -0.6753  3.4142
  996EMI    H2"18923   3.769   3.384   5.297 -0.8688  0.1979 -0.6581
  996EMI    H2"18924   3.688   3.245   5.388  0.9475 -2.8676 -1.7313
  997EMI     N118925   3.855   0.851   5.367 -0.0167 -0.2365 -0.0039
  997EMI     C218926   3.778   0.961   5.360  0.2738  0.0677  0.2357
  997EMI     N318927   3.649   0.932   5.332  0.3082 -0.0424  0.6043
  997EMI     C418928   3.640   0.788   5.328  0.2080 -0.0818 -0.6260
  997EMI     C518929   3.766   0.742   5.352 -0.0719 -0.0157  0.1573
  997EMI     H218930   3.830   1.059   5.377  0.9685  1.6363  0.5603
  997EMI     H418931   3.553   0.724   5.311  3.3321  0.0277  0.3368
  997EMI     H518932   3.797   0.643   5.370  1.4818 -0.1201  0.0350
  997EMI    C1'18933   3.533   1.019   5.299  0.3067 -0.1085  0.3986
  997EMI    H1'18934   3.446   1.010   5.358  0.9651 -1.5687 -0.2332
  997EMI    H1'18935   3.567   1.121   5.303 -2.0141  0.8532  0.0650
  997EMI    H1'18936   3.510   0.994   5.197  0.7158 -0.0249  0.0225
  997EMI    C1"18937   3.998   0.830   5.383  0.3772 -0.2164 -0.5707
  997EMI    H1"18938   4.041   0.911   5.326  2.4624  0.2089  3.1562
  997EMI    H1"18939   4.029   0.739   5.339 -1.0155  2.2263  1.2346
  997EMI    C2"18940   4.050   0.841   5.527  0.1459  0.5307 -0.6871
  997EMI    H2"18941   4.059   0.950   5.553  0.7363  0.5300  0.3703
  997EMI    H2"18942   3.982   0.791   5.595 -1.5921 -0.5728  0.0394
  997EMI    H2"18943   4.143   0.781   5.524  1.0859 -1.9155  2.1015
  998EMI     N118944   3.409   0.770   0.213 -0.3677  0.0581  0.4025
  998EMI     C218945   3.476   0.671   0.280 -0.5908  0.0637  0.1070
  998EMI     N318946   3.420   0.553   0.255 -0.2357 -0.1828 -0.0312
  998EMI     C418947   3.311   0.574   0.169  0.1359 -0.8362 -0.0901
  998EMI     C518948   3.308   0.707   0.144  0.5282  0.3922 -0.2317
  998EMI     H218949   3.566   0.687   0.346  0.8667 -1.4462  1.6000
  998EMI     H418950   3.249   0.497   0.122 -3.4132 -3.5171 -3.8414
  998EMI     H518951   3.247   0.754   0.069 -1.2630  2.5040  1.6311
  998EMI    C1'18952   3.452   0.415   0.307  0.5122 -0.4379  0.0639
  998EMI    H1'18953   3.434   0.409   0.418 -0.7314  0.2256  1.7447
  998EMI    H1'18954   3.393   0.344   0.244 -0.7148 -3.6805 -1.9602
  998EMI    H1'18955   3.558   0.405   0.285 -1.1119  0.6931 -2.0787
  998EMI    C1"18956   3.435   0.918   0.215 -0.5107  0.5130  0.6109
  998EMI    H1"18957   3.467   0.947   0.317  0.2903 -1.3365  0.1980
  998EMI    H1"18958   3.336   0.956   0.198  1.8841 -2.7996  0.4696
  998EMI    C2"18959   3.542   0.953   0.114 -0.6240 -0.3707 -0.3163
  998EMI    H2"18960   3.626   0.883   0.125  3.1730  0.6047 -0.5844
  998EMI    H2"18961   3.505   0.950   0.008  1.6095 -0.0250  1.1088
  998EMI    H2"18962   3.588   1.050   0.136  0.5596 -0.8246  0.3598
  999EMI     N118963   1.535   4.147   5.254  0.5188 -0.0785 -0.1936
  999EMI     C218964   1.541   4.074   5.143 -0.2790  0.0317 -0.4560
  999EMI     N318965   1.459   4.106   5.041 -0.9509 -0.5122 -0.6190
  999EMI     C418966   1.387   4.211   5.091 -0.4240  0.3329  0.6246
  999EMI     C518967   1.429   4.236   5.221  0.4903  0.7440 -0.1307
  999EMI     H218968   1.615   4.002   5.123  1.0733 -0.4841 -2.0782
  999EMI     H418969   1.312   4.265   5.038  1.1288 -1.3533  2.7098
  999EMI     H518970   1.391   4.320   5.286 -0.1326 -1.0778 -1.5963
  999EMI    C1'18971   1.439   4.042   4.916  0.4550 -0.1674  0.7204
  999EMI    H1'18972   1.513   3.967   4.891 -0.7910  0.1914 -1.2765
  999EMI    H1'18973   1.345   3.987   4.930 -4.4427  1.3919  2.0958
  999EMI    H1'18974   1.426   4.119   4.842 -1.2476 -0.6523  0.2857
  999EMI    C1"18975   1.606   4.134   5.384  0.2075 -0.7444  0.5489
  999EMI    H1"18976   1.683   4.216   5.381  0.6999  1.1453  0.0296
  999EMI    H1"18977   1.646   4.031   5.392  0.1233  1.6756  0.3260
  999EMI    C2"18978   1.529   4.172   5.512 -0.2394 -0.5265  0.3291
  999EMI    H2"18979   1.516   4.283   5.522  0.6561 -0.3193 -0.1052
  999EMI    H2"18980   1.434   4.121   5.493 -0.5489  0.4581 -0.2581
  999EMI    H2"18981   1.585   4.129   5.597 -1.2320 -1.1065  0.2381
 1000EMI     N118982   2.539   5.743   1.879  0.3411 -0.5595  0.1472
 1000EMI     C218983   2.468   5.648   1.943  0.1634  0.5363  0.6141
 1000EMI     N318984   2.348   5.638   1.880 -0.9856 -0.4912  0.2715
 1000EMI     C418985   2.332   5.736   1.788 -0.2794 -0.7040  0.6637
 1000EMI     C518986   2.447   5.806   1.794 -0.4700  0.1036  1.1211
 1000EMI     H218987   2.497   5.573   2.018  0.2727 -0.8660 -0.8264
 1000EMI     H418988   2.247   5.757   1.722  1.8296 -1.1144 -2.6065
 1000EMI     H518989   2.457   5.901   1.737 -0.8267 -3.1220  0.1776
 1000EMI    C1'18990   2.245   5.531   1.888 -0.2740  1.0418 -0.4146
 1000EMI    H1'18991   2.306   5.437   1.875 -1.2934 -1.1166 -0.1871
 1000EMI    H1'18992   2.194   5.533   1.990  1.7278  0.6980  0.5308
 1000EMI    H1'18993   2.163   5.543   1.815 -1.6911 -2.3343 -0.6701
 1000EMI    C1"18994   2.681   5.792   1.885 -0.1099  0.4850  0.9713
 1000EMI    H1"18995   2.680   5.884   1.945  1.1276  0.2506  1.8882
 1000EMI    H1"18996   2.707   5.813   1.777  0.9188  1.6656  1.4019
 1000EMI    C2"18997   2.777   5.699   1.953  0.1902  0.0365  0.2484
 1000EMI    H2"18998   2.738   5.679   2.052 -0.3398 -0.0869 -2.8477
 1000EMI    H2"18999   2.784   5.603   1.889 -1.6071  1.0102  3.1406
 1000EMI    H2"19000   2.875   5.743   1.946  1.8279  0.4197 -1.4281
 1001TFB      B19001   2.885   5.718   1.537 -0.1850 -0.4893 -0.0334
 1001TFB     F119002   2.967   5.728   1.647  0.1617 -0.2893  0.3281
 1001TFB     F219003   2.755   5.737   1.578  0.3640  0.0877  0.6239
 1001TFB     F319004   2.925   5.804   1.434  0.2778  0.0056  0.1244
 1001TFB     F419005   2.890   5.588   1.491  0.1499  0.1931 -0.5738
 1002TFB      B19006   5.336   6.287   1.482 -0.0649  0.0920  0.3940
 1002TFB     F119007   5.271   6.375   1.571  0.0892  0.0022  0.1323
 1002TFB     F219008   5.467   6.266   1.523 -0.3533 -0.0638  0.2727
 1002TFB     F319009   5.262   6.166   1.488  0.1704 -0.8606 -0.1547
 1002TFB     F419010   5.316   6.344   1.353  0.1646  0.0018 -0.0742
 1003TFB      B19011   3.492   2.238   4.370  0.0880  0.2262  0.2014
 1003TFB     F119012   3.616   2.224   4.305 -0.3838 -0.4572 -0.4259
 1003TFB     F219013   3.519   2.301   4.495  0.4723  0.0089  0.7120
 1003TFB     F319014   3.402   2.309   4.291 -0.2725 -0.1149  0.1646
 1003TFB     F419015   3.428   2.119   4.407  0.0974  0.0348 -0.1320
 1004TFB      B19016   1.564   2.794   5.328  0.4735 -0.0694  0.5351
 1004TFB     F119017   1.563   2.654   5.333 -0.5868 -0.1800 -0.5784
 1004TFB     F219018   1.635   2.836   5.217  0.4866  0.4013  0.0831
 1004TFB     F319019   1.432   2.839   5.340 -0.1625  0.2082  0.0652
 1004TFB     F419020   1.647   2.830   5.436  0.2032  0.2030 -0.0035
 1005TFB      B19021   2.602   4.492   0.524  0.8583  0.3317 -0.0952
 1005TFB     F119022   2.513   4.495   0.416 -0.2257  0.4048 -0.1003
 1005TFB     F219023   2.726   4.543   0.493 -0.2136 -0.4677 -0.3467
 1005TFB     F319024   2.566   4.580   0.625  0.7757 -0.6697  0.1844
 1005TFB     F419025   2.618   4.364   0.570 -0.0761 -0.0258  0.0610
 1006TFB      B19026   0.351   0.366   4.680  0.3639 -0.2855 -0.7516
 1006TFB     F119027   0.333   0.248   4.755 -0.1532  0.0080 -0.6341
 1006TFB     F219028   0.237   0.448   4.695 -0.2072 -0.7765  0.1815
 1006TFB     F319029   0.454   0.437   4.729 -0.0355  0.2132  0.0632
 1006TFB     F419030   0.364   0.342   4.545  0.0371  0.1798 -0.3813
 1007TFB      B19031   6.188   6.179   1.972  0.2202  0.0793 -0.5218
 1007TFB     F119032   6.226   6.239   2.094  0.4459  0.0156 -0.0718
 1007TFB     F219033   6.238   6.239   1.867  0.0768 -0.2044  0.1676
 1007TFB     F319034   6.215   6.049   1.985 -0.0976  0.6144  0.7423
 1007TFB     F419035   6.051   6.196   1.974  0.4508  0.2429 -0.7731
 1008TFB      B19036   2.978   4.283   0.789 -0.5869 -0.5961  0.2614
 1008TFB     F119037   2.892   4.174   0.820 -0.1077 -0.2443  0.0079
 1008TFB     F219038   2.966   4.383   0.883  0.0721  0.4523  0.2935
 1008TFB     F319039   3.104   4.242   0.824 -0.8343 -0.5700  0.0430
 1008TFB     F419040   2.989   4.338   0.656 -0.0133  0.2437  0.1000
 1009TFB      B19041   0.850   2.594   1.265  0.1552 -0.3561  0.1363
 1009TFB     F119042   0.785   2.595   1.388  0.2035  0.1308 -0.4955
 1009TFB     F219043   0.962   2.517   1.280  0.5411 -0.4304  0.0457
 1009TFB     F319044   0.758   2.523   1.183  0.2816  0.1586 -0.3150
 1009TFB     F419045   0.867   2.716   1.194  0.1763  0.4112 -0.2655
 1010TFB      B19046   5.778   4.576   2.093 -0.3208  0.3247 -0.4992
 1010TFB     F119047   5.782   4.704   2.151 -0.1833  0.2643 -0.0454
 1010TFB     F219048   5.899   4.517   2.107 -0.2441  0.2243  0.1504
 1010TFB     F319049   5.693   4.500   2.182 -0.7597  0.6595 -0.2239
 1010TFB     F419050   5.727   4.581   1.966  0.1208 -0.2338  0.2396
 1011TFB      B19051   2.261   1.400   1.286 -0.4058 -0.1634 -0.1945
 1011TFB     F119052   2.149   1.379   1.357 -0.0014 -0.1758  0.6458
 1011TFB     F219053   2.229   1.490   1.187 -0.6619 -0.0160  0.1442
 1011TFB     F319054   2.352   1.457   1.373  0.2805 -0.3905 -0.1154
 1011TFB     F419055   2.311   1.286   1.227 -0.1913  0.0089  0.2874
 1012TFB      B19056   0.239   1.880   0.834  0.1373 -0.7945 -0.1165
 1012TFB     F119057   0.331   1.792   0.878 -0.2650 -0.2319 -0.6502
 1012TFB     F219058   0.171   1.936   0.941  0.0419 -0.0810 -1.1221
 1012TFB     F319059   0.297   1.991   0.772 -0.5400  0.3375  0.1654
 1012TFB     F419060   0.146   1.818   0.752 -0.1428  0.1496 -0.0339
 1013TFB      B19061   5.127   3.648   4.080 -1.0009  0.2776  0.0221
 1013TFB     F119062   5.107   3.532   4.002  0.3217 -0.0833 -0.1022
 1013TFB     F219063   5.260   3.653   4.133  0.0178  0.0026 -0.1737
 1013TFB     F319064   5.087   3.758   4.000  0.1653  0.2630 -0.4972
 1013TFB     F419065   5.060   3.667   4.201 -0.2663  0.0678 -0.4424
 1014TFB      B19066   2.892   2.394   4.355 -0.6167  0.1918  0.5812
 1014TFB     F119067   2.896   2.488   4.457  0.3078 -0.0675 -0.1478
 1014TFB     F219068   3.023   2.357   4.317 -0.3069 -0.1087 -0.3428
 1014TFB     F319069   2.821   2.283   4.404 -0.4072 -0.8442 -0.1612
 1014TFB     F419070   2.829   2.447   4.242  0.2758  0.7338  0.2162
 1015TFB      B19071   1.945   3.525   1.530 -0.6549 -0.5526 -0.0197
 1015TFB     F119072   2.000   3.646   1.578 -0.6535  0.3271  0.3532
 1015TFB     F219073   1.855   3.549   1.423 -0.3007 -0.0166 -0.0350
 1015TFB     F319074   2.043   3.437   1.495  0.7900 -0.7409 -0.0069
 1015TFB     F419075   1.879   3.481   1.637 -0.3961  0.2178  0.0713
 1016TFB      B19076   6.204   0.365   3.091 -0.2288 -0.7581  1.5377
 1016TFB     F119077   6.146   0.345   3.209 -0.0094 -0.4638  0.5455
 1016TFB     F219078   6.103   0.379   2.994 -0.2080  0.1760 -0.0568
 1016TFB     F319079   6.282   0.480   3.111 -0.4960 -0.2727 -0.1488
 1016TFB     F419080   6.279   0.244   3.051  0.2876 -0.7641 -0.2451
 1017TFB      B19081   2.596   1.341   4.023  0.2679  0.5685  0.3576
 1017TFB     F119082   2.598   1.250   4.122 -0.0698  0.0152 -0.0849
 1017TFB     F219083   2.624   1.298   3.895  0.5933 -0.0799 -0.4632
 1017TFB     F319084   2.467   1.398   4.024  0.4342 -0.0257 -0.7743
 1017TFB     F419085   2.695   1.432   4.061 -0.3741  0.2107 -0.0087
 1018TFB      B19086   4.206   1.611   5.443  0.1914 -0.0215  0.0460
 1018TFB     F119087   4.287   1.573   5.550  0.3770 -0.0564 -0.3268
 1018TFB     F219088   4.187   1.498   5.360 -0.0166 -0.0677  0.3742
 1018TFB     F319089   4.080   1.628   5.492  0.3542  0.1267  0.0959
 1018TFB     F419090   4.251   1.719   5.366 -0.4838  0.0343 -0.7448
 1019TFB      B19091   4.053   0.834   1.560  0.6939 -0.8413  0.5403
 1019TFB     F119092   4.163   0.912   1.589  0.2398 -0.0061  0.2637
 1019TFB     F219093   3.999   0.790   1.680 -0.2987  0.0195 -0.4609
 1019TFB     F319094   3.949   0.901   1.488  0.3413  0.3727 -0.2641
 1019TFB     F419095   4.098   0.726   1.481  0.5080  0.1650  0.2615
 1020TFB      B19096   4.355   6.204   3.796  0.2844 -0.2461  0.5314
 1020TFB     F119097   4.283   6.309   3.747  0.6887 -0.2377  0.1492
 1020TFB     F219098   4.452   6.269   3.868 -0.0149 -0.2862 -0.0158
 1020TFB     F319099   4.269   6.118   3.864  0.4613 -0.3011  0.7267
 1020TFB     F419100   4.414   6.138   3.686 -0.1059  0.0186  0.0316
 1021TFB      B19101   2.072   4.098   2.642 -1.0341 -0.5000  0.2392
 1021TFB     F119102   1.981   4.173   2.573  0.3549  0.2452  0.1160
 1021TFB     F219103   2.088   3.975   2.573 -0.2110 -0.4589 -0.4252
 1021TFB     F319104   2.192   4.173   2.635  1.1265 -0.1278  0.0305
 1021TFB     F419105   2.017   4.079   2.766 -0.1732  0.0545  0.6591
 1022TFB      B19106   0.123   3.767   1.168  0.3503  0.1985 -0.4188
 1022TFB     F119107   0.104   3.904   1.156 -0.1801 -0.3830  0.1941
 1022TFB     F219108   0.258   3.744   1.179 -0.3777  0.2885  0.9132
 1022TFB     F319109   0.053   3.729   1.281 -0.1122 -0.2939 -0.3588
 1022TFB     F419110   0.081   3.700   1.056  0.6315 -0.0015  0.0806
 1023TFB      B19111   2.724   3.454   1.111  0.9065  1.1024  0.0567
 1023TFB     F119112   2.587   3.500   1.113  0.2437 -0.3014 -0.3623
 1023TFB     F219113   2.770   3.492   1.235  0.1653 -0.5765 -0.1742
 1023TFB     F319114   2.740   3.315   1.112  0.2041  0.0323  0.1969
 1023TFB     F419115   2.790   3.530   1.007 -0.2820 -0.6712 -0.4201
 1024TFB      B19116   1.212   0.957   3.455  0.5834 -0.6837  1.1640
 1024TFB     F119117   1.313   1.030   3.408 -0.2122  0.1559 -0.5443
 1024TFB     F219118   1.098   1.034   3.460 -0.9265  0.1202 -0.5172
 1024TFB     F319119   1.179   0.852   3.377  0.0984  0.7828  0.0955
 1024TFB     F419120   1.242   0.900   3.579 -0.4756 -0.0208  0.5448
 1025TFB      B19121   1.228   4.021   5.687  0.1235 -0.5662 -0.2691
 1025TFB     F119122   1.208   4.000   5.550 -0.2518 -0.2755  0.2291
 1025TFB     F219123   1.172   4.136   5.736  0.3932 -0.3400  0.4690
 1025TFB     F319124   1.148   3.926   5.747  0.3609  0.1250 -0.3288
 1025TFB     F419125   1.356   3.997   5.722  0.4400  0.0297  0.1532
 1026TFB      B19126   3.346   4.029   2.193  0.0828 -0.9124 -0.0331
 1026TFB     F119127   3.210   4.056   2.194  0.3516 -0.4681  0.0425
 1026TFB     F219128   3.371   3.895   2.187  0.1256  0.4110 -0.2849
 1026TFB     F319129   3.404   4.081   2.081 -0.6015  0.3231 -0.1050
 1026TFB     F419130   3.394   4.096   2.306 -0.2147  0.0743 -0.1310
 1027TFB      B19131   5.327   3.346   4.646 -0.5364 -0.6525  1.2407
 1027TFB     F119132   5.343   3.478   4.615  0.5126 -0.0391 -0.1515
 1027TFB     F219133   5.320   3.280   4.528  0.1695  0.2095 -0.5375
 1027TFB     F319134   5.437   3.303   4.727  0.2317 -0.3013 -0.4788
 1027TFB     F419135   5.204   3.343   4.726  0.0692 -0.1755  0.4270
 1028TFB      B19136   2.716   5.681   2.837 -0.7052  1.0066 -0.1519
 1028TFB     F119137   2.655   5.752   2.746  0.2397  0.8088 -0.1050
 1028TFB     F219138   2.776   5.569   2.788  0.3154 -0.3240  0.3763
 1028TFB     F319139   2.822   5.746   2.898  0.5908 -0.5774  0.5785
 1028TFB     F419140   2.635   5.637   2.938  0.1473  0.2146 -0.1825
 1029TFB      B19141   5.530   0.463   5.636 -0.7236  0.0655 -0.2522
 1029TFB     F119142   5.627   0.541   5.692  0.7872  0.0011 -0.0441
 1029TFB     F219143   5.418   0.545   5.596 -0.4472  0.4990  0.1459
 1029TFB     F319144   5.572   0.410   5.518  0.1166  0.2331 -0.0399
 1029TFB     F419145   5.485   0.368   5.729  0.3336  0.3012 -0.7698
 1030TFB      B19146   2.796   4.145   1.570  0.0631  0.2786 -0.6826
 1030TFB     F119147   2.903   4.181   1.485  0.1935 -0.5298 -0.4699
 1030TFB     F219148   2.767   4.245   1.662  0.3256 -0.0515  0.1226
 1030TFB     F319149   2.684   4.121   1.489 -0.2417  0.1230 -0.4160
 1030TFB     F419150   2.839   4.032   1.637  0.2233 -0.1875  0.2858
 1031TFB      B19151   6.206   2.598   2.857 -0.0113 -0.2160  0.1385
 1031TFB     F119152   6.287   2.585   2.749  0.0519 -0.0780 -0.2802
 1031TFB     F219153   6.210   2.474   2.924  0.0652 -0.1362  0.2861
 1031TFB     F319154   6.256   2.700   2.937  0.2326 -0.1717  0.4300
 1031TFB     F419155   6.074   2.642   2.818  0.3808  0.0092 -0.2127
 1032TFB      B19156   3.727   4.607   6.322 -0.1209  0.5559 -0.3205
 1032TFB     F119157   3.700   4.613   6.183 -0.1688  0.4939  0.1957
 1032TFB     F219158   3.648   4.513   6.383 -0.1163 -0.1706 -0.2314
 1032TFB     F319159   3.866   4.575   6.347 -0.0505 -0.0601 -0.1624
 1032TFB     F419160   3.692   4.732   6.369 -0.0317  0.3146  0.4197
 1033TFB      B19161   2.364   4.425   1.771  0.2930  0.4977 -0.0049
 1033TFB     F119162   2.433   4.502   1.855  0.0452 -0.1902  0.1448
 1033TFB     F219163   2.301   4.517   1.695  0.0417  0.7378  0.2064
 1033TFB     F319164   2.442   4.341   1.693 -0.1649  0.3185  0.6225
 1033TFB     F419165   2.280   4.349   1.856  0.2324  0.3537 -0.2934
 1034TFB      B19166   5.136   4.563   2.240 -0.6763 -0.0288 -0.4256
 1034TFB     F119167   5.146   4.632   2.358 -0.0568  0.5874  0.2844
 1034TFB     F219168   5.068   4.633   2.148 -0.0261 -0.1277 -0.3038
 1034TFB     F319169   5.263   4.535   2.197 -0.9485 -0.1095 -0.3429
 1034TFB     F419170   5.082   4.450   2.278 -0.0213  0.5737  0.1994
 1035TFB      B19171   4.320   5.419   0.430 -0.5316 -0.6062 -0.2303
 1035TFB     F119172   4.255   5.346   0.333 -0.1124  0.4310  0.3510
 1035TFB     F219173   4.395   5.338   0.522 -0.3479  0.1330  0.2430
 1035TFB     F319174   4.403   5.514   0.378 -0.3931 -0.3787 -0.4976
 1035TFB     F419175   4.228   5.484   0.509 -0.0869  0.6446 -0.2589
 1036TFB      B19176   1.941   1.314   2.904 -0.8984 -0.4740 -0.1641
 1036TFB     F119177   1.823   1.251   2.937 -0.0486 -0.3313  0.7086
 1036TFB     F219178   1.922   1.448   2.937 -0.3272  0.6663 -0.7335
 1036TFB     F319179   2.043   1.265   2.988  0.7345  0.4259  0.0112
 1036TFB     F419180   1.971   1.302   2.771 -0.2359 -0.0303  0.1417
 1037TFB      B19181   4.877   4.404   3.349 -0.1551 -0.9560  0.1508
 1037TFB     F119182   4.820   4.534   3.315 -0.4202 -0.1247 -0.0782
 1037TFB     F219183   4.780   4.353   3.435  0.1689 -0.5038  0.4434
 1037TFB     F319184   4.885   4.326   3.231 -0.3967 -0.2232 -0.4484
 1037TFB     F419185   5.006   4.418   3.395 -0.0305  0.1358 -0.0860
 1038TFB      B19186   4.822   5.723   3.894  0.2296 -0.5663 -0.2850
 1038TFB     F119187   4.888   5.813   3.986 -0.4218 -0.9207 -0.2632
 1038TFB     F219188   4.684   5.722   3.920 -0.4348  0.6231  0.4951
 1038TFB     F319189   4.840   5.763   3.765  0.1344 -0.3592 -0.3913
 1038TFB     F419190   4.873   5.597   3.907  0.1048 -0.4565 -0.1424
 1039TFB      B19191   0.001   1.703   6.326 -0.2135  0.8672  0.6558
 1039TFB     F119192   0.102   1.627   6.276 -0.2727  0.4480 -0.5009
 1039TFB     F219193  -0.100   1.616   6.369  0.1401  0.1730 -0.5857
 1039TFB     F319194   0.048   1.772   6.430 -0.1859 -0.0072 -0.0446
 1039TFB     F419195  -0.053   1.802   6.245 -0.0366  0.1395  0.0001
 1040TFB      B19196   4.663   3.873   3.797  0.6556  0.6241 -0.0523
 1040TFB     F119197   4.554   3.884   3.882 -0.3449  0.2161  0.2800
 1040TFB     F219198   4.647   3.953   3.679  0.0396 -0.0636 -0.5128
 1040TFB     F319199   4.782   3.912   3.855  0.0781 -0.2391 -0.1780
 1040TFB     F419200   4.666   3.739   3.761 -0.1483  0.1934 -0.3454
 1041TFB      B19201   0.628   1.153   1.816 -0.2594  0.4729 -0.3019
 1041TFB     F119202   0.720   1.255   1.801 -0.4290  0.1553  0.0665
 1041TFB     F219203   0.559   1.181   1.932  0.1815 -0.4402  0.3072
 1041TFB     F319204   0.541   1.145   1.703 -0.3383 -0.0635  0.2686
 1041TFB     F419205   0.696   1.036   1.847 -0.2063 -0.2182  0.0432
 1042TFB      B19206   1.423   4.554   5.390 -0.1105  0.0231  0.1601
 1042TFB     F119207   1.327   4.450   5.414 -0.2754 -0.0243  0.4089
 1042TFB     F219208   1.522   4.542   5.487 -0.2628 -0.4502 -0.4000
 1042TFB     F319209   1.466   4.548   5.260  0.4550  0.0377  0.0688
 1042TFB     F419210   1.373   4.685   5.398 -0.0978  0.1633  0.2436
 1043TFB      B19211   3.984   1.890   6.260 -0.2951  0.0837 -0.3299
 1043TFB     F119212   3.936   1.961   6.369  0.0463 -0.4037 -0.3180
 1043TFB     F219213   3.924   1.765   6.265  0.6123  0.2821 -0.2848
 1043TFB     F319214   3.958   1.965   6.143  0.7038  0.0915  0.0748
 1043TFB     F419215   4.121   1.878   6.275 -0.1081  0.2404  0.1884
 1044TFB      B19216   0.561   1.377   0.546  0.6233 -1.0824  0.5734
 1044TFB     F119217   0.484   1.289   0.613 -0.1309 -0.0920 -0.2221
 1044TFB     F219218   0.602   1.323   0.421  0.1463 -0.2499  0.3971
 1044TFB     F319219   0.478   1.490   0.515  0.4190  0.4039  0.2187
 1044TFB     F419220   0.659   1.426   0.624 -0.0526 -0.0106 -0.3472
 1045TFB      B19221   1.515   4.088   6.060 -0.0046 -0.6070  0.3890
 1045TFB     F119222   1.585   4.077   6.181 -0.3282 -0.2303 -0.1921
 1045TFB     F219223   1.432   3.980   6.035 -0.2753 -0.3936 -0.6439
 1045TFB     F319224   1.429   4.204   6.064 -0.1529  0.6499  0.1788
 1045TFB     F419225   1.609   4.092   5.963  0.3587 -0.1831 -0.3271
 1046TFB      B19226   3.734   1.330   0.794  1.1255 -0.1782  0.7210
 1046TFB     F119227   3.615   1.368   0.854 -0.9157  0.5095 -0.0340
 1046TFB     F219228   3.827   1.307   0.896  0.9000  1.2926  0.5013
 1046TFB     F319229   3.713   1.210   0.729 -0.2917  0.7669  0.2051
 1046TFB     F419230   3.774   1.433   0.701  0.2689  0.1938  0.3631
 1047TFB      B19231   0.703   5.015   0.511 -0.5006  0.4895  0.0705
 1047TFB     F119232   0.682   5.036   0.377 -0.4469  0.1823 -0.2590
 1047TFB     F219233   0.792   4.910   0.519 -0.5777 -0.1832  0.2707
 1047TFB     F319234   0.756   5.129   0.569  0.1846  0.3474 -0.3609
 1047TFB     F419235   0.582   4.983   0.563  0.0959  0.3495 -0.5687
 1048TFB      B19236   0.985   3.909   3.770 -0.4479 -0.7705  0.2150
 1048TFB     F119237   1.071   4.021   3.753 -0.0821  0.0773  0.6183
 1048TFB     F219238   1.048   3.785   3.775 -0.8135  0.3072 -0.2098
 1048TFB     F319239   0.905   3.931   3.885  0.4878  0.3422 -0.1119
 1048TFB     F419240   0.908   3.892   3.659 -0.4575  0.1018 -0.3197
 1049TFB      B19241   0.607   2.593   0.770 -0.0061  0.2406 -0.1102
 1049TFB     F119242   0.713   2.639   0.847 -0.3573  0.1018 -0.2966
 1049TFB     F219243   0.630   2.627   0.633  0.5401 -0.1858 -0.1489
 1049TFB     F319244   0.589   2.458   0.781 -0.5661 -0.4299 -0.5257
 1049TFB     F419245   0.489   2.656   0.805  0.0730  0.0082  0.1980
 1050TFB      B19246   3.533   1.611   4.894 -0.1605  0.4697 -0.1536
 1050TFB     F119247   3.559   1.600   5.032  0.2990  0.3681 -0.2361
 1050TFB     F219248   3.416   1.684   4.878 -0.9710 -0.1030  0.6291
 1050TFB     F319249   3.653   1.660   4.840 -0.1126 -0.1958 -0.4502
 1050TFB     F419250   3.510   1.482   4.847 -0.5561 -0.3223 -0.1439
 1051TFB      B19251   3.330   5.569   1.536  0.8470  0.2495  0.5603
 1051TFB     F119252   3.382   5.692   1.517 -0.5207  0.1903 -0.3216
 1051TFB     F219253   3.206   5.563   1.470 -0.2257  0.3646 -0.5517
 1051TFB     F319254   3.419   5.479   1.486  0.0288 -0.3498  0.4862
 1051TFB     F419255   3.305   5.539   1.672 -0.2436 -0.2496 -0.2535
 1052TFB      B19256   6.333   0.758   1.603 -0.1493  1.2186  0.0403
 1052TFB     F119257   6.444   0.770   1.690 -0.0848  0.0386 -0.1631
 1052TFB     F219258   6.329   0.624   1.561  0.1079  0.1990 -0.4632
 1052TFB     F319259   6.213   0.808   1.651 -0.0930  0.5360  0.2884
 1052TFB     F419260   6.368   0.830   1.487  0.7662 -0.7499 -0.0475
 1053TFB      B19261   2.872   5.642   6.064  0.9112  0.0594 -0.9333
 1053TFB     F119262   2.803   5.640   5.944  0.5895  0.0658 -0.0252
 1053TFB     F219263   2.981   5.554   6.055 -0.1758  0.0815 -0.5791
 1053TFB     F319264   2.916   5.773   6.090 -0.1327  0.0076 -0.1968
 1053TFB     F419265   2.782   5.607   6.163  0.1208 -0.0997  0.7685
 1054TFB      B19266   3.040   1.197   5.755  0.4629 -0.0247 -0.3603
 1054TFB     F119267   3.102   1.244   5.643  0.4648 -0.4671  0.2587
 1054TFB     F219268   2.926   1.273   5.793  0.5020  0.3947  0.1469
 1054TFB     F319269   3.004   1.059   5.746  0.0675 -0.2477  0.1230
 1054TFB     F419270   3.130   1.200   5.861  0.7726  0.2070 -0.2410
 1055TFB      B19271   2.099   5.565   4.520 -0.2287 -0.1852 -0.2869
 1055TFB     F119272   2.042   5.655   4.431  0.4770 -0.4086 -0.4844
 1055TFB     F219273   2.160   5.643   4.616  0.6584  0.2055  0.4318
 1055TFB     F319274   2.003   5.488   4.581 -0.2681  0.5066  0.6459
 1055TFB     F419275   2.195   5.497   4.454  0.6486 -0.6484 -0.4212
 1056TFB      B19276   4.203   0.352   1.641  0.1669 -0.4731  0.1485
 1056TFB     F119277   4.177   0.218   1.669 -0.4219 -0.4643 -0.2970
 1056TFB     F219278   4.316   0.348   1.553 -0.2091  0.9883 -0.2456
 1056TFB     F319279   4.106   0.420   1.588  0.3965 -0.0849 -0.0896
 1056TFB     F419280   4.241   0.411   1.763 -0.3825 -0.0924  0.4446
 1057TFB      B19281   2.432   1.900   2.500 -0.5923 -0.1503 -0.1819
 1057TFB     F119282   2.454   2.014   2.565  0.9293  0.3224 -0.2738
 1057TFB     F219283   2.460   1.804   2.591  0.2956 -0.3405 -0.1045
 1057TFB     F319284   2.304   1.878   2.458  0.2661 -0.2185  0.5422
 1057TFB     F419285   2.520   1.886   2.400 -0.2015 -0.1681  0.0911
 1058TFB      B19286   1.361   0.554   1.781 -0.5027 -0.0264 -0.0164
 1058TFB     F119287   1.495   0.544   1.773  0.1375 -0.1996  0.0511
 1058TFB     F219288   1.306   0.436   1.734 -0.3696 -0.2826 -0.1702
 1058TFB     F319289   1.317   0.578   1.908  0.6488 -0.2179  0.0732
 1058TFB     F419290   1.318   0.663   1.700  0.9183 -0.1388 -0.2965
 1059TFB      B19291   0.991   0.422   6.025 -0.0675 -0.1796  0.7667
 1059TFB     F119292   0.940   0.519   5.948  0.3136 -0.2454 -0.1259
 1059TFB     F219293   1.124   0.441   6.026 -0.0651 -0.4610  0.2908
 1059TFB     F319294   0.924   0.428   6.149  0.1509  0.5925 -0.3037
 1059TFB     F419295   0.962   0.292   5.975 -0.3059  0.5416  0.2819
 1060TFB      B19296   2.819   3.896   2.969  0.4931 -0.2671  0.5384
 1060TFB     F119297   2.790   4.030   2.984  0.2076 -0.1732 -0.5680
 1060TFB     F219298   2.956   3.879   2.988 -0.0007 -0.1089  0.1503
 1060TFB     F319299   2.735   3.836   3.061  0.8972 -0.4693 -0.1189
 1060TFB     F419300   2.779   3.852   2.846  0.1267 -0.2171  0.1379
 1061TFB      B19301   1.881   1.701   4.598  0.2757 -0.3783  0.1201
 1061TFB     F119302   1.846   1.581   4.534  0.3202 -0.3116  0.5422
 1061TFB     F219303   1.933   1.675   4.725 -0.1581  0.1882  0.6653
 1061TFB     F319304   2.002   1.748   4.537  0.0202  0.3448  0.0292
 1061TFB     F419305   1.773   1.795   4.606  0.0456  0.4023  0.1677
 1062TFB      B19306   0.209   5.135   5.136  0.3704 -0.0059 -0.2499
 1062TFB     F119307   0.165   5.255   5.195 -0.6504  0.7342 -0.0432
 1062TFB     F219308   0.124   5.037   5.190  0.3935 -0.2546  0.2984
 1062TFB     F319309   0.187   5.145   5.002 -0.0571  0.1234 -0.2526
 1062TFB     F419310   0.343   5.100   5.167  0.5981 -0.6010  0.5659
 1063TFB      B19311   3.846   1.021   5.932  0.0687  0.1994  0.2979
 1063TFB     F119312   3.844   1.155   5.927  0.1125 -0.1652 -0.1202
 1063TFB     F219313   3.748   0.966   5.850  0.2373 -0.3739 -0.0287
 1063TFB     F319314   3.969   0.964   5.917 -0.5514  0.0926  0.2356
 1063TFB     F419315   3.823   0.983   6.064 -0.0132 -0.3469  0.0912
 1064TFB      B19316   2.292   4.827   2.378  0.4368  1.1581  0.0253
 1064TFB     F119317   2.259   4.942   2.440 -0.1630  0.0677 -0.1921
 1064TFB     F219318   2.213   4.721   2.431  0.0655 -0.6886  0.0298
 1064TFB     F319319   2.273   4.846   2.246  0.3999 -0.1683  0.1301
 1064TFB     F419320   2.425   4.793   2.401  0.4658  0.1388  0.0424
 1065TFB      B19321   0.580   2.140   0.365  0.5139 -0.3904  0.1209
 1065TFB     F119322   0.624   2.136   0.496  0.3251  0.0234 -0.2776
 1065TFB     F219323   0.551   2.008   0.322 -0.8928 -0.0200 -0.6481
 1065TFB     F319324   0.470   2.215   0.342 -0.3068 -0.1128  0.4377
 1065TFB     F419325   0.687   2.171   0.274  0.0622 -0.3401  0.1285
 1066TFB      B19326   5.444   1.509   1.663 -0.0830  0.1208 -0.3857
 1066TFB     F119327   5.311   1.463   1.693  0.4836  0.4017 -0.2349
 1066TFB     F219328   5.487   1.465   1.539 -0.2492 -0.1608  0.0673
 1066TFB     F319329   5.449   1.647   1.660 -0.4867  0.0867 -0.4537
 1066TFB     F419330   5.541   1.474   1.755  0.8992  0.3018 -0.4586
 1067TFB      B19331   3.371   0.771   1.149 -0.3760  0.7119 -0.3329
 1067TFB     F119332   3.390   0.665   1.234  0.4499  0.3727  0.3031
 1067TFB     F219333   3.311   0.885   1.203 -0.2959  0.2522  0.0907
 1067TFB     F319334   3.490   0.809   1.099  0.0014  0.8070 -0.4863
 1067TFB     F419335   3.283   0.725   1.048 -0.0712 -0.6851  0.1768
 1068TFB      B19336   4.683   5.828   0.096  0.6010  0.3275  0.3901
 1068TFB     F119337   4.736   5.891  -0.007 -0.3988  0.0539 -0.0938
 1068TFB     F219338   4.552   5.787   0.069  0.1516 -0.4249 -0.1027
 1068TFB     F319339   4.754   5.709   0.130  0.6369 -1.0052  0.3246
 1068TFB     F419340   4.686   5.916   0.204  0.2691  0.0665  0.0796
 1069TFB      B19341   3.631   5.357   6.286 -0.1589 -0.3410 -0.6153
 1069TFB     F119342   3.575   5.476   6.342  0.0977 -0.3129 -0.1477
 1069TFB     F219343   3.638   5.358   6.151  0.4887  0.1459  0.2657
 1069TFB     F319344   3.765   5.344   6.335  0.2219  0.2009 -0.0724
 1069TFB     F419345   3.553   5.255   6.340  0.2464  0.0948  0.3425
 1070TFB      B19346   2.781   5.223   0.873 -0.6068 -0.5992  0.2204
 1070TFB     F119347   2.820   5.172   0.751 -0.2117  0.0164 -0.0149
 1070TFB     F219348   2.865   5.338   0.899  0.1410 -0.2060 -0.5142
 1070TFB     F319349   2.645   5.256   0.865 -0.2139  0.4026  0.4002
 1070TFB     F419350   2.805   5.117   0.966 -0.1117  0.3869 -0.7963
 1071TFB      B19351   1.756   2.992   2.838 -0.3271  0.0033 -0.4952
 1071TFB     F119352   1.610   2.977   2.865  0.1614  0.3372  0.6084
 1071TFB     F219353   1.805   3.099   2.926 -0.0216 -0.9744 -0.5369
 1071TFB     F319354   1.835   2.878   2.852  0.4981 -0.7936  0.8475
 1071TFB     F419355   1.777   3.017   2.705  0.5052  0.4503  0.2874
 1072TFB      B19356   2.256   1.983   1.719  0.0608  0.2027  0.4231
 1072TFB     F119357   2.332   1.952   1.836  0.2695  0.2999  0.2912
 1072TFB     F219358   2.345   1.992   1.614 -0.0119 -0.6071 -0.0385
 1072TFB     F319359   2.152   1.892   1.705 -0.1740  0.3629  0.5640
 1072TFB     F419360   2.197   2.110   1.728 -0.1581 -0.1420 -0.0968
 1073TFB      B19361   0.544   6.047   3.328  0.0470 -0.1619 -0.0256
 1073TFB     F119362   0.667   6.001   3.382 -0.1536  0.2309 -0.2465
 1073TFB     F219363   0.559   6.167   3.260 -0.4049 -0.2450 -0.2750
 1073TFB     F319364   0.485   5.940   3.251 -0.1344 -0.4677 -0.3660
 1073TFB     F419365   0.456   6.074   3.431 -0.1420  0.1977  0.4100
 1074TFB      B19366   4.810   5.614   3.167 -0.1192  0.2573 -0.8935
 1074TFB     F119367   4.803   5.749   3.168  0.6235 -0.3980  0.3634
 1074TFB     F219368   4.682   5.569   3.200  0.2838  0.1993  0.0903
 1074TFB     F319369   4.846   5.596   3.032  0.8235  0.4450 -0.3394
 1074TFB     F419370   4.914   5.561   3.239  0.2381 -0.1716 -0.3635
 1075TFB      B19371   5.411   2.163   3.379  0.0164 -0.5834 -0.6692
 1075TFB     F119372   5.437   2.280   3.455 -0.0313  0.0912 -0.7243
 1075TFB     F219373   5.278   2.157   3.348  0.6727  0.1042  0.3819
 1075TFB     F319374   5.499   2.158   3.275  0.0628 -0.0689 -0.7042
 1075TFB     F419375   5.439   2.052   3.457  0.2063 -0.2065 -0.7168
 1076TFB      B19376   4.449   4.305   2.125 -0.3802  1.0299  0.4773
 1076TFB     F119377   4.353   4.278   2.025 -0.3049  0.3161  0.0978
 1076TFB     F219378   4.586   4.294   2.086 -0.0969 -0.0829  0.5509
 1076TFB     F319379   4.429   4.437   2.177 -0.2386  0.5515 -0.8316
 1076TFB     F419380   4.433   4.222   2.237 -0.3761 -0.2531  0.2403
 1077TFB      B19381   5.920   3.669   3.226 -0.2366  0.6521 -0.9719
 1077TFB     F119382   5.819   3.572   3.238 -0.3173  0.9423  0.0107
 1077TFB     F219383   6.036   3.599   3.225  0.4585 -0.0602 -0.2451
 1077TFB     F319384   5.894   3.735   3.107 -0.5695 -0.0154 -0.1662
 1077TFB     F419385   5.911   3.761   3.330 -0.0554  0.2275 -0.0886
 1078TFB      B19386   1.721   1.556   6.031  0.0972  0.1582  0.6786
 1078TFB     F119387   1.609   1.627   6.053 -0.3687 -0.0127 -0.4278
 1078TFB     F219388   1.805   1.528   6.144 -0.4443  0.2933  0.2265
 1078TFB     F319389   1.682   1.442   5.972  0.4489  0.6493  0.6984
 1078TFB     F419390   1.805   1.631   5.956  0.2642 -0.5325  0.0839
 1079TFB      B19391   5.078   5.106   2.737 -0.0065  0.2725  0.3852
 1079TFB     F119392   5.031   5.008   2.643  0.4185  0.0339 -0.2406
 1079TFB     F219393   4.992   5.207   2.767  0.1965  0.3066  0.2645
 1079TFB     F319394   5.126   5.044   2.852  0.4360 -0.1697  0.4440
 1079TFB     F419395   5.186   5.176   2.685  0.4001  0.1247  0.2747
 1080TFB      B19396   0.156   3.550   6.311  0.3844 -0.3006  0.8885
 1080TFB     F119397   0.207   3.565   6.438 -0.1281  0.0884 -0.2365
 1080TFB     F219398   0.076   3.659   6.295  0.0144  1.0559 -0.1092
 1080TFB     F319399   0.256   3.555   6.212 -0.5674  0.9309 -0.5532
 1080TFB     F419400   0.086   3.425   6.304  0.4319 -0.1191  0.2292
 1081TFB      B19401   5.614   4.672   4.658  0.4686  0.2924  0.0059
 1081TFB     F119402   5.704   4.750   4.601 -0.4379 -0.1544 -0.1098
 1081TFB     F219403   5.647   4.537   4.654  0.3385 -0.3203 -0.4527
 1081TFB     F319404   5.604   4.709   4.794 -0.1739 -0.2240  0.3201
 1081TFB     F419405   5.495   4.684   4.590 -0.1516 -0.5802 -0.2005
 1082TFB      B19406   4.884   0.244   2.011 -0.2553  0.1963  0.2539
 1082TFB     F119407   4.764   0.296   2.058 -0.1109 -0.0319  0.1442
 1082TFB     F219408   4.881   0.105   2.017 -0.5579 -0.0335  0.6648
 1082TFB     F319409   4.920   0.288   1.882  0.1695 -0.2237 -0.2213
 1082TFB     F419410   4.981   0.281   2.102 -0.3555  0.0686  0.0676
 1083TFB      B19411   5.892   1.342   4.318 -0.3810 -0.6335 -0.1177
 1083TFB     F119412   5.943   1.416   4.216 -0.6595  0.1841 -0.7879
 1083TFB     F219413   5.750   1.353   4.318 -0.4228 -0.4280  0.4985
 1083TFB     F319414   5.916   1.206   4.313  0.2890 -0.1192 -0.6445
 1083TFB     F419415   5.936   1.389   4.444 -0.5975 -0.0558 -0.6832
 1084TFB      B19416   6.235   0.973   0.770 -0.2486 -0.7572  0.6597
 1084TFB     F119417   6.145   1.029   0.850 -0.2148  0.1433 -0.1458
 1084TFB     F219418   6.228   1.042   0.647 -0.1450 -0.1694 -0.3375
 1084TFB     F319419   6.355   1.011   0.818  0.3084 -0.4380  0.0313
 1084TFB     F419420   6.213   0.832   0.763  0.1628  0.7113  0.2714
 1085TFB      B19421   3.516   5.377   3.570 -0.6297 -0.4955 -0.7276
 1085TFB     F119422   3.579   5.298   3.663 -0.7329 -0.3756 -0.0109
 1085TFB     F219423   3.467   5.312   3.456  0.5322 -0.5980 -0.2386
 1085TFB     F319424   3.410   5.449   3.625 -0.0539  0.6066  0.6810
 1085TFB     F419425   3.599   5.464   3.512 -0.2656  0.0781 -0.1708
 1086TFB      B19426   4.848   4.427   1.074 -0.0283  0.2166  0.0254
 1086TFB     F119427   4.720   4.472   1.108  0.1576 -0.0991  0.3350
 1086TFB     F219428   4.864   4.463   0.938  0.4101 -0.0289 -0.3485
 1086TFB     F319429   4.950   4.490   1.146  0.0832  0.1656  0.1120
 1086TFB     F419430   4.866   4.287   1.092 -0.2416  0.1025  0.2536
 1087TFB      B19431   0.975   0.761   2.315  0.2276  0.0426  0.1658
 1087TFB     F119432   1.013   0.667   2.217 -0.0761  0.1172  0.1600
 1087TFB     F219433   0.900   0.677   2.400 -0.1466  0.1898  0.2013
 1087TFB     F319434   1.093   0.793   2.389  0.2462 -0.1505  0.2854
 1087TFB     F419435   0.908   0.868   2.257 -0.1594  0.2081 -0.2728
 1088TFB      B19436   1.223   1.293   2.080  0.1088  0.2041 -0.3204
 1088TFB     F119437   1.100   1.356   2.088  0.4749 -0.2461  0.0168
 1088TFB     F219438   1.224   1.196   2.179  0.0461  0.5128 -0.0599
 1088TFB     F319439   1.245   1.241   1.956  0.1792 -0.1297 -0.3247
 1088TFB     F419440   1.319   1.388   2.112 -0.2772  0.2390 -0.0518
 1089TFB      B19441   4.483   2.296   0.267 -0.7766 -1.0646  0.5635
 1089TFB     F119442   4.612   2.243   0.244  0.1604  0.1272  0.3834
 1089TFB     F219443   4.453   2.347   0.144  0.2316 -0.5171  1.0363
 1089TFB     F319444   4.400   2.201   0.308  0.0604  0.3192 -0.3748
 1089TFB     F419445   4.502   2.398   0.358 -0.4531  0.5202  0.3022
 1090TFB      B19446   0.874   3.482   4.606 -0.5599 -0.5919 -0.1274
 1090TFB     F119447   1.000   3.483   4.549 -0.1789 -0.0584 -0.6062
 1090TFB     F219448   0.820   3.363   4.580  0.4801  0.0430  0.4387
 1090TFB     F319449   0.879   3.501   4.742 -0.2370 -0.1450  0.1992
 1090TFB     F419450   0.795   3.579   4.556 -0.2906 -0.4534  0.4176
 1091TFB      B19451   6.029   5.890   5.048  0.7147  0.3582 -0.2350
 1091TFB     F119452   5.899   5.877   5.001  0.5553 -0.0297  0.1143
 1091TFB     F219453   6.048   5.782   5.134  0.3829  0.7565 -0.6289
 1091TFB     F319454   6.121   5.897   4.950  0.2467  0.1672  0.2719
 1091TFB     F419455   6.027   6.003   5.133  0.3901  0.3613  0.3988
 1092TFB      B19456   5.667   2.123   5.677 -0.0880  0.5989  0.5408
 1092TFB     F119457   5.697   2.083   5.807 -0.0969 -0.0279  0.1473
 1092TFB     F219458   5.664   2.013   5.589  0.1330  0.0558  0.1936
 1092TFB     F319459   5.548   2.176   5.665  0.4490 -0.0830 -0.0000
 1092TFB     F419460   5.770   2.212   5.626  0.2472  0.3865  0.0771
 1093TFB      B19461   4.817   3.086   4.028  0.1766 -0.1572 -1.3262
 1093TFB     F119462   4.893   3.099   4.149 -0.2138  0.6258  1.3679
 1093TFB     F219463   4.819   2.959   3.991  0.0263 -0.3439 -0.0032
 1093TFB     F319464   4.681   3.128   4.048 -0.2967  0.1568  0.6121
 1093TFB     F419465   4.884   3.164   3.935 -0.0431 -0.3346  0.8296
 1094TFB      B19466   3.674   1.440   0.030 -0.2583 -0.6204  0.2224
 1094TFB     F119467   3.752   1.496   0.122 -0.0017 -0.5318  0.1454
 1094TFB     F219468   3.681   1.306   0.047  0.0556 -0.1985  0.1604
 1094TFB     F319469   3.549   1.490   0.049 -0.3251  0.0733  0.3799
 1094TFB     F419470   3.715   1.452  -0.101 -0.0551 -0.0554  0.3388
 1095TFB      B19471   6.307   4.861   0.306 -0.1187  0.5638  0.7208
 1095TFB     F119472   6.338   4.994   0.329  0.3810 -0.5231  0.7301
 1095TFB     F219473   6.291   4.858   0.169 -0.0163  0.2251 -0.3728
 1095TFB     F319474   6.408   4.771   0.338  0.2779 -0.3116 -0.5402
 1095TFB     F419475   6.186   4.823   0.369  0.0595 -0.3975 -0.0791
 1096TFB      B19476   6.114   5.211   2.237  0.0916  0.3259 -0.1818
 1096TFB     F119477   6.139   5.079   2.212  0.0783 -0.0739  0.0408
 1096TFB     F219478   5.985   5.228   2.271  0.2729 -0.2613 -0.1211
 1096TFB     F319479   6.186   5.242   2.348 -0.2389  0.1616 -0.3321
 1096TFB     F419480   6.135   5.295   2.129  0.5085  0.1636 -0.1170
 1097TFB      B19481   3.737   0.187   0.267  0.0268 -0.2655  0.8124
 1097TFB     F119482   3.676   0.063   0.288  0.2929 -0.1635 -0.1739
 1097TFB     F219483   3.753   0.258   0.380 -0.3568 -0.1817  0.1474
 1097TFB     F319484   3.868   0.155   0.222  0.0457  0.1957  0.4243
 1097TFB     F419485   3.671   0.257   0.166 -0.3255  0.0026 -0.1249
 1098TFB      B19486   5.940   6.180   3.811  0.3234  0.4422 -0.8407
 1098TFB     F119487   6.019   6.184   3.928 -0.0097 -0.2774  0.0901
 1098TFB     F219488   6.022   6.183   3.704 -0.1795  0.1045 -0.4619
 1098TFB     F319489   5.874   6.053   3.800 -0.4364 -0.1399  0.7546
 1098TFB     F419490   5.850   6.280   3.800  0.4707 -0.0493  0.6867
 1099TFB      B19491   3.018   3.347   4.871  0.3774 -0.1626  0.2199
 1099TFB     F119492   2.910   3.384   4.945 -0.1334 -0.0604 -0.8821
 1099TFB     F219493   3.072   3.229   4.922  0.1400  0.2945 -0.3078
 1099TFB     F319494   2.991   3.343   4.738  0.1990  0.1282  0.1945
 1099TFB     F419495   3.123   3.439   4.885 -0.2468  0.0353  0.1615
 1100TFB      B19496   2.550   2.746   4.857  0.1015  0.3630  0.1107
 1100TFB     F119497   2.425   2.741   4.921  0.2466  0.2257  0.0901
 1100TFB     F219498   2.641   2.839   4.891  0.2366  0.2458  0.2304
 1100TFB     F319499   2.617   2.622   4.864 -0.4215  0.5960 -0.0834
 1100TFB     F419500   2.518   2.765   4.727 -0.0010 -0.5990 -0.1817
 1101TFB      B19501   4.681   3.404   5.556  1.1179 -0.0393  0.3265
 1101TFB     F119502   4.701   3.415   5.417 -0.3758 -0.2416 -0.0871
 1101TFB     F219503   4.799   3.397   5.632  0.0654 -0.1674  0.1980
 1101TFB     F319504   4.619   3.517   5.608 -0.2795  0.2590 -0.3047
 1101TFB     F419505   4.591   3.301   5.590  0.9475  0.1361 -0.3910
 1102TFB      B19506   2.591   3.800   5.335 -0.5344 -0.0989 -1.2343
 1102TFB     F119507   2.698   3.719   5.368  0.1627  0.7432  0.5578
 1102TFB     F219508   2.520   3.822   5.454  0.2881  0.9956  0.4721
 1102TFB     F319509   2.650   3.909   5.283  0.0818 -0.2232  0.0161
 1102TFB     F419510   2.515   3.735   5.236 -0.3450  0.3914 -0.0671
 1103TFB      B19511   1.494   4.442   4.241  0.5862  0.5116 -0.3004
 1103TFB     F119512   1.438   4.385   4.354 -0.1907 -0.8927 -0.0629
 1103TFB     F219513   1.632   4.422   4.248 -0.3196 -0.0433  0.0026
 1103TFB     F319514   1.453   4.385   4.125 -0.4322 -0.1620  0.5266
 1103TFB     F419515   1.470   4.576   4.229  0.2032 -0.2448  0.0821
 1104TFB      B19516   6.254   4.708   5.118 -0.8958 -0.0009  0.9830
 1104TFB     F119517   6.285   4.753   5.248  0.4230  0.4075 -0.4687
 1104TFB     F219518   6.311   4.789   5.026  0.3772 -0.6564 -0.2906
 1104TFB     F319519   6.305   4.583   5.103 -0.0857  0.0246 -0.4756
 1104TFB     F419520   6.116   4.716   5.091 -0.3561  0.5068 -0.0204
 1105TFB      B19521   5.284   3.946   1.005 -0.4536  0.8583 -0.2982
 1105TFB     F119522   5.314   3.928   0.873 -0.1376  0.1400 -0.1191
 1105TFB     F219523   5.378   4.033   1.057 -0.1535  0.4580 -0.1606
 1105TFB     F319524   5.149   3.987   1.024 -0.2827  0.1073 -0.3196
 1105TFB     F419525   5.289   3.823   1.076  0.0762  0.3192  0.1423
 1106TFB      B19526   6.195   1.039   4.635 -0.1553  0.0239  0.1908
 1106TFB     F119527   6.219   1.173   4.601  0.0529  0.5023 -0.3627
 1106TFB     F219528   6.089   0.995   4.568 -0.1807  0.3469 -0.0829
 1106TFB     F319529   6.305   0.960   4.593 -0.0263  0.3524 -0.1217
 1106TFB     F419530   6.158   1.023   4.768  0.1081 -0.1226  0.3365
 1107TFB      B19531   4.469   2.971   6.130 -0.5176 -0.1998  0.0296
 1107TFB     F119532   4.536   3.056   6.040  0.0068 -0.4306  0.2885
 1107TFB     F219533   4.483   2.836   6.106 -0.6025 -0.7253  0.1154
 1107TFB     F319534   4.484   3.008   6.261 -0.2454 -0.2015  0.0306
 1107TFB     F419535   4.336   3.001   6.093 -0.5986 -0.1508  0.2116
 1108TFB      B19536   5.234   0.221   0.973  0.7671  0.9685  0.0595
 1108TFB     F119537   5.292   0.103   1.018  0.2012  0.7626  0.0407
 1108TFB     F219538   5.260   0.226   0.840  0.3536 -0.0689 -0.1574
 1108TFB     F319539   5.096   0.232   1.009 -0.0155  0.1124 -0.3405
 1108TFB     F419540   5.314   0.319   1.036 -0.0695  0.6805  0.2941
 1109TFB      B19541   1.097   5.151   3.775  0.8023 -0.0204  0.2600
 1109TFB     F119542   1.127   5.266   3.840 -0.3034  0.4077 -0.2842
 1109TFB     F219543   1.065   5.048   3.863 -0.1221 -0.1233 -0.1231
 1109TFB     F319544   0.990   5.183   3.696  0.8254 -0.0567  0.7041
 1109TFB     F419545   1.208   5.111   3.700  0.0035 -0.1590 -0.0212
 1110TFB      B19546   1.032   3.907   5.052  0.5759 -0.6604  0.4031
 1110TFB     F119547   0.965   4.024   5.025 -0.1934  0.1162 -0.4194
 1110TFB     F219548   1.122   3.890   4.952  0.0327  0.0301  0.3964
 1110TFB     F319549   1.078   3.900   5.176 -0.2397 -0.9767 -0.1742
 1110TFB     F419550   0.944   3.801   5.032 -0.3916 -0.4282  0.0560
 1111TFB      B19551   2.686   4.559   4.824 -0.2217  0.5319  0.2112
 1111TFB     F119552   2.692   4.611   4.693 -0.8287 -0.3126  0.4572
 1111TFB     F219553   2.724   4.429   4.833  0.2892 -0.8096 -0.3738
 1111TFB     F319554   2.762   4.633   4.904 -0.1902  0.2174 -0.0693
 1111TFB     F419555   2.558   4.572   4.872  0.2934  0.0541 -0.2059
 1112TFB      B19556   3.998   1.938   3.689 -0.0894  0.2941 -0.4000
 1112TFB     F119557   3.932   2.003   3.584  0.0955 -0.0858 -0.4364
 1112TFB     F219558   3.940   1.816   3.700 -0.4217 -0.0097 -0.1692
 1112TFB     F319559   4.130   1.919   3.660 -0.2884 -0.3209 -0.4105
 1112TFB     F419560   3.983   2.001   3.818  0.0982  0.1313 -0.2666
 1113TFB      B19561   5.971   5.446   5.430 -0.1320  0.6255  0.4636
 1113TFB     F119562   5.891   5.551   5.409  0.0256  0.4880  0.6620
 1113TFB     F219563   5.986   5.360   5.321  0.8175  0.2240 -0.3280
 1113TFB     F319564   6.094   5.489   5.464  0.1714 -0.4921  0.3053
 1113TFB     F419565   5.924   5.380   5.542  0.3333  0.0915 -0.3164
 1114TFB      B19566   1.483   2.762   1.129 -0.5744 -0.2230 -0.3482
 1114TFB     F119567   1.561   2.837   1.039 -0.4818 -0.6724 -0.1707
 1114TFB     F219568   1.399   2.704   1.048  0.1920 -0.5931  0.0725
 1114TFB     F319569   1.565   2.674   1.203  0.2653  0.3710 -0.2020
 1114TFB     F419570   1.431   2.847   1.227 -0.5387  0.4801  0.1637
 1115TFB      B19571   1.552   6.110   1.654  0.2561 -0.6490 -0.1350
 1115TFB     F119572   1.581   6.067   1.522 -0.7757 -0.1320  0.6745
 1115TFB     F219573   1.501   6.002   1.726 -0.4684  0.3900  0.2634
 1115TFB     F319574   1.676   6.137   1.713  0.2300 -0.1922  0.4111
 1115TFB     F419575   1.474   6.225   1.659 -0.0556 -0.7973 -0.4787
 1116TFB      B19576   2.788   4.739   4.125 -0.3169  0.1293  0.2614
 1116TFB     F119577   2.867   4.629   4.149 -0.2562  0.2420 -0.4119
 1116TFB     F219578   2.843   4.852   4.177 -0.2178  0.3352 -0.5476
 1116TFB     F319579   2.762   4.757   3.991  0.4386 -0.1426 -0.1021
 1116TFB     F419580   2.674   4.708   4.195 -0.1564 -0.3206  0.9727
 1117TFB      B19581   3.143   2.614   1.296 -0.1252  0.6825  0.7443
 1117TFB     F119582   3.193   2.737   1.284 -0.2199 -0.2969  0.1595
 1117TFB     F219583   3.015   2.607   1.362 -0.6431  0.0452  0.2766
 1117TFB     F319584   3.121   2.562   1.175  0.4286  0.9785 -0.1773
 1117TFB     F419585   3.233   2.524   1.360  0.1545  0.4319  0.2397
 1118TFB      B19586   4.149   4.140   0.625 -0.2240 -0.7093  0.9841
 1118TFB     F119587   4.077   4.249   0.575 -0.0981  0.4521 -0.0579
 1118TFB     F219588   4.098   4.025   0.572  0.0777  0.0721 -0.0103
 1118TFB     F319589   4.282   4.159   0.589 -0.4425  0.3007  0.2052
 1118TFB     F419590   4.143   4.139   0.759 -0.5518  0.0585 -0.7614
 1119TFB      B19591   1.007   2.879   4.955 -0.0702 -0.3217  1.0124
 1119TFB     F119592   0.945   3.002   4.963 -0.1333 -0.1273  0.0996
 1119TFB     F219593   0.911   2.789   4.906  0.1820 -0.3396  0.4824
 1119TFB     F319594   1.112   2.881   4.863  0.1245  0.2934  0.4521
 1119TFB     F419595   1.042   2.852   5.085 -0.0603 -0.0806 -0.5202
 1120TFB      B19596   3.342   0.307   6.267  0.2139 -0.5803 -0.4139
 1120TFB     F119597   3.384   0.438   6.261  0.0570 -0.5355 -0.0979
 1120TFB     F219598   3.449   0.230   6.280 -0.0667 -0.3640 -0.4201
 1120TFB     F319599   3.253   0.295   6.378  0.8934 -0.1483 -0.5666
 1120TFB     F419600   3.277   0.257   6.157  0.0019 -0.3196 -0.0766
 1121TFB      B19601   3.492   4.457   4.735 -0.5506  0.2907 -0.7946
 1121TFB     F119602   3.480   4.320   4.758  0.4224 -0.2104 -0.2757
 1121TFB     F219603   3.386   4.505   4.657  0.0185  0.4038 -0.3456
 1121TFB     F319604   3.490   4.505   4.866  0.1101  0.1990 -0.2113
 1121TFB     F419605   3.620   4.475   4.683  0.4036 -0.0983  0.2254
 1122TFB      B19606   4.058   3.508   0.643 -0.0762  0.6636 -0.5964
 1122TFB     F119607   4.010   3.632   0.619 -0.8586  0.3380  0.0735
 1122TFB     F219608   4.188   3.509   0.582  0.8984 -0.0392 -0.1790
 1122TFB     F319609   4.053   3.492   0.785  0.3278 -0.1729  0.4667
 1122TFB     F419610   3.981   3.413   0.575  0.3253  0.5483 -0.0456
 1123TFB      B19611   5.869   1.527   0.203 -0.3450  0.0298  0.1060
 1123TFB     F119612   6.000   1.565   0.208 -0.2120  0.2188 -0.5186
 1123TFB     F219613   5.806   1.527   0.337 -0.0766  0.0849  0.2218
 1123TFB     F319614   5.808   1.622   0.126 -0.2407  0.2221  0.0163
 1123TFB     F419615   5.865   1.399   0.154  0.0974 -0.1798  0.0685
 1124TFB      B19616   5.740   6.122   0.044 -0.2328  0.1001  0.0878
 1124TFB     F119617   5.826   6.225   0.012 -0.1406  0.2325 -0.2615
 1124TFB     F219618   5.710   6.108   0.183  0.4128  0.0449  0.3798
 1124TFB     F319619   5.627   6.130  -0.033  0.1468 -0.1428 -0.0033
 1124TFB     F419620   5.812   6.013   0.008  0.3616  0.6947 -0.0371
 1125TFB      B19621   5.670   2.154   4.397  0.0754  0.2979 -0.6044
 1125TFB     F119622   5.715   2.138   4.265 -0.3896  0.3026  0.2546
 1125TFB     F219623   5.608   2.047   4.452 -0.3213  0.2687 -1.0262
 1125TFB     F319624   5.773   2.185   4.475 -0.1036  0.0941 -0.0342
 1125TFB     F419625   5.594   2.269   4.408 -0.2075 -0.1062 -0.1178
 1126TFB      B19626   3.527   5.248   0.988  0.5427 -0.3661 -1.0721
 1126TFB     F119627   3.505   5.116   0.984 -0.3614  0.6691  0.3654
 1126TFB     F219628   3.558   5.293   0.861  0.1648 -0.3264 -0.2318
 1126TFB     F319629   3.415   5.310   1.033  0.0316  0.2620 -0.2701
 1126TFB     F419630   3.635   5.279   1.075 -0.7166  0.0611  0.1943
 1127TFB      B19631   6.317   3.425   3.726  0.3226 -0.1932 -0.0710
 1127TFB     F119632   6.275   3.318   3.657  0.1521  0.6376  0.0989
 1127TFB     F219633   6.206   3.498   3.771  0.6100  0.2011  0.0624
 1127TFB     F319634   6.407   3.383   3.821 -0.0588  0.3389  0.3521
 1127TFB     F419635   6.394   3.486   3.633 -0.4164 -0.2035 -0.0024
 1128TFB      B19636   5.945   2.500   1.661  0.6846 -0.1592 -0.3736
 1128TFB     F119637   6.009   2.511   1.539  1.2789  0.0127  0.3265
 1128TFB     F219638   6.009   2.588   1.743  0.3848 -0.3620  0.7442
 1128TFB     F319639   5.819   2.552   1.637  0.6441  1.0624  0.1521
 1128TFB     F419640   5.961   2.368   1.700 -1.0762  0.4895 -0.2420
 1129TFB      B19641   0.492   5.550   4.655 -0.2862  0.5600 -0.2973
 1129TFB     F119642   0.501   5.691   4.631 -0.2725  0.5431 -0.0826
 1129TFB     F219643   0.360   5.520   4.674 -0.0422 -0.3787  0.4286
 1129TFB     F319644   0.540   5.476   4.548 -0.1064  0.6849 -0.2610
 1129TFB     F419645   0.560   5.515   4.773  0.4970 -0.2164  0.0139
 1130TFB      B19646   4.686   4.684   5.483 -0.2677 -0.2523 -0.0103
 1130TFB     F119647   4.631   4.786   5.565  0.2283  0.0502 -0.1254
 1130TFB     F219648   4.590   4.589   5.453  0.1286 -1.0428  0.0221
 1130TFB     F319649   4.716   4.738   5.360 -0.0016  0.0373 -0.3749
 1130TFB     F419650   4.796   4.624   5.531 -0.1470  0.6257 -0.2728
 1131TFB      B19651   0.639   0.626   0.054  0.5886  0.4990  0.5490
 1131TFB     F119652   0.555   0.738   0.037  0.0069  0.0891 -0.1312
 1131TFB     F219653   0.598   0.556   0.162 -0.1481 -0.5963  0.0201
 1131TFB     F319654   0.604   0.553  -0.059  0.0679 -0.1361 -0.2636
 1131TFB     F419655   0.772   0.652   0.063  0.2210  0.0188  0.4369
 1132TFB      B19656   2.333   5.140   4.195  0.4001 -0.4661  0.0567
 1132TFB     F119657   2.318   5.209   4.304 -0.1725  0.4109 -0.2740
 1132TFB     F219658   2.430   5.041   4.209 -0.1221  0.3256  0.1898
 1132TFB     F319659   2.214   5.083   4.142  0.5525 -0.2241  0.1037
 1132TFB     F419660   2.384   5.234   4.105  0.4354  0.2653  0.3429
 1133TFB      B19661   4.078   1.811   4.631 -0.6734 -0.1204  0.5918
 1133TFB     F119662   4.021   1.754   4.741 -0.2878  0.1192  0.8944
 1133TFB     F219663   3.984   1.817   4.530 -0.2889  0.1470  0.1986
 1133TFB     F319664   4.105   1.947   4.662  0.1313  0.1100 -0.1223
 1133TFB     F419665   4.193   1.738   4.588 -0.0672  0.2299 -0.3792
 1134TFB      B19666   1.965   6.038   6.101 -0.1603  0.1122  0.3213
 1134TFB     F119667   1.986   5.898   6.109  0.0601 -0.2527  0.0458
 1134TFB     F219668   1.901   6.072   6.220  0.5023 -0.0726  0.4021
 1134TFB     F319669   2.084   6.104   6.089  0.0440 -0.5999 -0.1130
 1134TFB     F419670   1.888   6.073   5.991 -0.3401  0.1393  0.2072
 1135TFB      B19671   5.156   0.627   4.227 -0.4105  0.8033 -0.3710
 1135TFB     F119672   5.111   0.740   4.166 -0.0571  0.2254 -0.2376
 1135TFB     F219673   5.048   0.563   4.279 -0.0190 -0.5356 -0.1369
 1135TFB     F319674   5.230   0.546   4.140 -0.1289 -0.1417  0.3316
 1135TFB     F419675   5.234   0.656   4.333 -0.2761 -0.3851  0.5895
 1136TFB      B19676   1.922   4.152   0.553 -0.4550  0.4629 -0.7606
 1136TFB     F119677   2.045   4.138   0.620  0.1798  0.2123  0.3916
 1136TFB     F219678   1.850   4.031   0.552 -0.1642  0.4437 -0.5034
 1136TFB     F319679   1.859   4.261   0.613 -0.3691 -0.1463  0.0863
 1136TFB     F419680   1.942   4.177   0.417 -0.2058  0.2641 -0.2990
 1137TFB      B19681   5.528   3.365   5.238 -0.2977  0.7201  0.0999
 1137TFB     F119682   5.650   3.417   5.256  0.3180  0.0410 -0.1142
 1137TFB     F219683   5.420   3.412   5.308  0.4935  0.0642  0.2626
 1137TFB     F319684   5.494   3.370   5.109  0.3879  0.0945 -0.3033
 1137TFB     F419685   5.555   3.233   5.265  0.1623 -0.2359 -0.3636
 1138TFB      B19686   0.458   5.226   0.948 -0.2998 -0.9389  0.6677
 1138TFB     F119687   0.363   5.280   0.864  0.3644  0.4483 -0.1047
 1138TFB     F219688   0.395   5.179   1.070 -0.4838  0.4411 -0.3954
 1138TFB     F319689   0.505   5.117   0.878 -0.1834  0.0081 -0.1721
 1138TFB     F419690   0.559   5.323   0.971 -0.1844  0.3624  0.0002
 1139TFB      B19691   1.370   5.086   0.716  1.0594 -0.8308  0.6368
 1139TFB     F119692   1.338   5.225   0.711 -0.5186 -0.0635 -0.2376
 1139TFB     F219693   1.289   5.019   0.625 -0.0713  0.2276 -0.1664
 1139TFB     F319694   1.496   5.078   0.673  0.0252  0.0825 -0.5362
 1139TFB     F419695   1.363   5.049   0.849  0.0704 -0.1530  0.6064
 1140TFB      B19696   3.560   4.645   1.367 -0.8238  0.8592 -0.6584
 1140TFB     F119697   3.668   4.620   1.280 -0.1864  0.1136  0.3009
 1140TFB     F219698   3.499   4.533   1.397 -0.1406  0.1047 -0.0566
 1140TFB     F319699   3.606   4.690   1.493  0.0669 -0.1478 -0.4937
 1140TFB     F419700   3.479   4.742   1.318 -0.2132 -0.1390  0.3030
 1141TFB      B19701   4.056   3.425   6.109  0.0004  0.5112 -0.2693
 1141TFB     F119702   4.050   3.285   6.089  0.0909 -0.3735  0.1354
 1141TFB     F219703   4.102   3.485   5.992 -0.2307  0.0841  0.2567
 1141TFB     F319704   3.938   3.486   6.148 -0.1305  0.2129 -0.0967
 1141TFB     F419705   4.162   3.453   6.202  0.5066 -0.4792  0.0148
 1142TFB      B19706   5.619   2.122   0.449  0.5890  0.2908 -0.2084
 1142TFB     F119707   5.743   2.165   0.489 -0.0334 -0.2867 -0.1068
 1142TFB     F219708   5.608   1.990   0.409 -0.4800 -0.4084  0.2085
 1142TFB     F319709   5.527   2.130   0.558  0.3633 -0.0748  0.1743
 1142TFB     F419710   5.587   2.217   0.343 -0.4961 -0.3984  0.3551
 1143TFB      B19711   4.041   2.631   1.215 -0.1314  0.4612 -0.3927
 1143TFB     F119712   4.001   2.747   1.279  0.4230  0.1083 -0.1680
 1143TFB     F219713   3.964   2.528   1.273 -0.3583 -0.5164  0.2730
 1143TFB     F319714   4.036   2.627   1.076  0.4546 -0.1736  0.6702
 1143TFB     F419715   4.174   2.599   1.250 -0.3307  0.6074  0.6150
 1144TFB      B19716   3.983   1.185   5.215 -0.5409  0.3455  0.7826
 1144TFB     F119717   3.983   1.060   5.141  0.0235  0.2114 -0.4042
 1144TFB     F219718   4.039   1.285   5.146 -0.1065  0.2719  0.1626
 1144TFB     F319719   3.848   1.213   5.247  0.2916  0.3303 -0.0277
 1144TFB     F419720   4.057   1.156   5.329 -0.3218  0.1435 -0.0077
 1145TFB      B19721   5.689   5.385   2.145  0.1572 -0.5046 -0.0970
 1145TFB     F119722   5.593   5.481   2.113  0.0169  0.2883  0.3192
 1145TFB     F219723   5.766   5.436   2.253 -0.2861 -0.7277 -0.0900
 1145TFB     F319724   5.630   5.267   2.176  0.2410  0.2999 -0.3707
 1145TFB     F419725   5.769   5.372   2.035 -0.2690 -0.0126  0.2169
 1146TFB      B19726   1.362   3.229   0.519 -0.1755  0.0341  0.6137
 1146TFB     F119727   1.311   3.115   0.458 -0.0354 -0.1746  0.5071
 1146TFB     F219728   1.493   3.207   0.564  0.4153  0.1094  0.3665
 1146TFB     F319729   1.367   3.337   0.424  0.2371 -0.2831 -0.4268
 1146TFB     F419730   1.293   3.276   0.636  0.1495  0.2683 -0.0704
 1147TFB      B19731   0.837   3.812   1.202 -0.3835  0.1527  0.6266
 1147TFB     F119732   0.805   3.709   1.287  0.0513 -0.5048  0.4514
 1147TFB     F219733   0.755   3.919   1.220  0.2856  0.2078  0.2258
 1147TFB     F319734   0.971   3.849   1.224 -0.5427  0.0041  0.0686
 1147TFB     F419735   0.830   3.762   1.078 -0.0438  0.0773  0.0048
 1148TFB      B19736   2.742   0.840   5.250  0.3586 -0.1039 -0.3197
 1148TFB     F119737   2.622   0.786   5.228  0.1135 -0.0609  0.8631
 1148TFB     F219738   2.801   0.888   5.137  0.3588 -0.1113  0.3587
 1148TFB     F319739   2.726   0.950   5.330  0.3238 -1.0209 -0.2625
 1148TFB     F419740   2.821   0.750   5.309 -0.1397  0.2236  0.1654
 1149TFB      B19741   4.956   1.177   3.999  0.1021  0.0379  0.2390
 1149TFB     F119742   5.031   1.142   4.109  0.0457 -0.1858  0.0611
 1149TFB     F219743   4.889   1.069   3.938 -0.2799  0.4301 -0.1121
 1149TFB     F319744   4.875   1.290   4.019  0.0828  0.0437 -0.3558
 1149TFB     F419745   5.059   1.214   3.908  0.3184  0.2939 -0.1316
 1150TFB      B19746   2.519   5.312   0.111  0.2367 -0.1297  0.2194
 1150TFB     F119747   2.486   5.427   0.031 -0.6374 -0.4043  0.4603
 1150TFB     F219748   2.497   5.196   0.032 -0.0978 -0.1156 -0.3119
 1150TFB     F319749   2.645   5.306   0.153 -0.0980 -0.3429  0.2171
 1150TFB     F419750   2.443   5.313   0.221 -0.5562  0.2588 -0.0816
 1151TFB      B19751   5.825   0.501   0.888 -0.3673  0.6033  0.2073
 1151TFB     F119752   5.741   0.409   0.950  0.0819  0.7518  0.6780
 1151TFB     F219753   5.824   0.610   0.970  0.2411  0.1190 -0.1142
 1151TFB     F319754   5.950   0.442   0.889  0.2663  0.5924  0.5336
 1151TFB     F419755   5.780   0.540   0.760 -0.1011 -0.0277  0.2911
 1152TFB      B19756   0.536   4.451   3.881  0.0985  0.3042 -0.3699
 1152TFB     F119757   0.426   4.521   3.922 -0.1626 -0.2012  0.5232
 1152TFB     F219758   0.591   4.382   3.987 -0.0619 -0.3084  0.1968
 1152TFB     F319759   0.480   4.372   3.788 -0.5134  0.3469 -0.1446
 1152TFB     F419760   0.630   4.537   3.815 -0.5347  0.4387 -0.0863
 1153TFB      B19761   1.192   0.053   4.197 -0.2782 -0.6234 -0.2798
 1153TFB     F119762   1.178   0.190   4.161  0.0025 -0.1475 -0.8074
 1153TFB     F219763   1.277  -0.012   4.107  0.1302 -0.1889  0.0527
 1153TFB     F319764   1.255   0.054   4.326 -0.2185  0.1262  0.6200
 1153TFB     F419765   1.068  -0.007   4.192 -0.3455 -0.1435 -0.1035
 1154TFB      B19766   1.212   0.733   0.317  0.5666  0.2644  0.4062
 1154TFB     F119767   1.084   0.727   0.369 -0.4278  0.6786  0.2796
 1154TFB     F219768   1.220   0.784   0.184 -0.2705 -0.1346 -0.0311
 1154TFB     F319769   1.298   0.816   0.394  0.4934  0.1333  0.0136
 1154TFB     F419770   1.256   0.595   0.313 -0.9248 -0.2330  0.7696
 1155TFB      B19771   5.891   0.314   0.231  0.1933  0.3202  0.7273
 1155TFB     F119772   5.867   0.407   0.135  0.7558 -0.0897  0.1705
 1155TFB     F219773   6.028   0.288   0.243 -0.4633 -0.1886  0.0090
 1155TFB     F319774   5.832   0.367   0.352 -0.1631  0.0838  0.3745
 1155TFB     F419775   5.832   0.194   0.186  0.0787 -0.2347  0.0596
 1156TFB      B19776   5.060   2.362   0.170 -0.2528  0.7663 -0.3133
 1156TFB     F119777   4.998   2.423   0.065  0.1537 -0.4249 -1.0867
 1156TFB     F219778   4.962   2.300   0.234 -0.2863 -0.1224 -0.3737
 1156TFB     F319779   5.152   2.280   0.101  0.3269  0.5212  0.0696
 1156TFB     F419780   5.132   2.457   0.244  0.0254  0.4711 -0.7127
 1157TFB      B19781   0.237   2.687   1.832  0.3117 -0.9360  1.1183
 1157TFB     F119782   0.110   2.746   1.835  0.3330  0.0716  0.0842
 1157TFB     F219783   0.230   2.571   1.910 -0.1281 -0.1869  0.2364
 1157TFB     F319784   0.272   2.638   1.708  0.4847  0.3703 -0.3884
 1157TFB     F419785   0.334   2.775   1.897  0.3879  0.7492 -0.2679
 1158TFB      B19786   0.254   1.373   2.340 -0.2080 -0.2270  0.3222
 1158TFB     F119787   0.120   1.395   2.368 -0.5744  0.2376 -0.2021
 1158TFB     F219788   0.326   1.442   2.440 -0.1150 -0.0780  0.0701
 1158TFB     F319789   0.284   1.240   2.359  0.2735  0.0759 -0.4651
 1158TFB     F419790   0.281   1.427   2.211  0.4433  0.2055 -0.1702
 1159TFB      B19791   3.571   3.707   1.147 -0.2139 -0.2320 -0.2055
 1159TFB     F119792   3.653   3.728   1.039 -0.4595  0.2187 -0.6734
 1159TFB     F219793   3.482   3.818   1.138  0.6607  0.8325  0.1222
 1159TFB     F319794   3.507   3.589   1.148  0.1452  0.0724 -0.1001
 1159TFB     F419795   3.657   3.726   1.254 -0.0941 -0.2647  0.5361
 1160TFB      B19796   1.034   0.979   5.162 -0.0720  0.4217 -0.3014
 1160TFB     F119797   1.165   0.932   5.158 -0.0270  0.0670  0.4255
 1160TFB     F219798   1.018   1.096   5.243 -0.0843 -0.2144  0.1415
 1160TFB     F319799   0.991   1.021   5.032  0.2062  0.0637 -0.0023
 1160TFB     F419800   0.956   0.876   5.213 -0.6006  0.3550 -0.2353
 1161TFB      B19801   4.660   3.072   2.772  0.1655 -0.1683  0.3307
 1161TFB     F119802   4.668   3.201   2.741 -0.0337  0.4226 -0.3454
 1161TFB     F219803   4.743   2.994   2.692 -0.1013  0.1441 -0.0263
 1161TFB     F319804   4.707   3.060   2.899  0.3661  0.4027 -0.6581
 1161TFB     F419805   4.522   3.042   2.763 -0.2157 -0.2079 -0.2663
 1162TFB      B19806   6.100   1.678   2.595  0.3241 -0.3995 -0.3432
 1162TFB     F119807   6.201   1.751   2.651  0.4549  0.1064 -0.0101
 1162TFB     F219808   6.144   1.613   2.472  0.3825 -0.2467  0.1126
 1162TFB     F319809   6.059   1.581   2.684  0.2130 -0.0933  0.3014
 1162TFB     F419810   5.987   1.765   2.570 -0.4539  0.0400 -0.2356
 1163TFB      B19811   1.731   0.407   5.744  0.7219 -0.3034 -0.3060
 1163TFB     F119812   1.629   0.330   5.802 -0.0600  0.9013  0.3387
 1163TFB     F219813   1.830   0.416   5.840  0.0917 -0.6830  0.2311
 1163TFB     F319814   1.779   0.346   5.625 -0.1034  0.0728 -0.3663
 1163TFB     F419815   1.687   0.539   5.713  0.2660  0.1961 -0.1365
 1164TFB      B19816   0.368   3.547   2.028  0.1202  0.3985  0.4748
 1164TFB     F119817   0.276   3.619   2.093  0.1389 -0.2811 -0.0230
 1164TFB     F219818   0.468   3.623   1.970  0.4936  0.3170  0.1684
 1164TFB     F319819   0.420   3.458   2.116  0.6713 -0.1429  0.2956
 1164TFB     F419820   0.307   3.488   1.921 -0.2046  0.6907 -0.5255
 1165TFB      B19821   4.042   2.086   1.871 -0.0653  0.3103 -0.5922
 1165TFB     F119822   4.050   1.949   1.837 -0.2774 -0.0749  0.1634
 1165TFB     F219823   4.171   2.149   1.864  0.2030 -0.0910 -0.7863
 1165TFB     F319824   3.966   2.158   1.782  0.0057 -0.2009 -0.2765
 1165TFB     F419825   4.006   2.105   2.007 -0.1889  0.5082 -0.0945
 1166TFB      B19826   3.544   1.350   2.568 -0.3348 -0.9145 -0.0901
 1166TFB     F119827   3.668   1.419   2.583  0.0751 -0.2549 -0.0758
 1166TFB     F219828   3.547   1.244   2.476 -0.5087 -0.2009 -0.0869
 1166TFB     F319829   3.511   1.293   2.685 -0.2034 -0.3203 -0.5495
 1166TFB     F419830   3.450   1.447   2.523  0.3410  0.1470 -0.0100
 1167TFB      B19831   0.279   6.204   1.947 -0.1473  0.3433 -0.1425
 1167TFB     F119832   0.395   6.279   1.970  0.1889  0.6988  0.1666
 1167TFB     F219833   0.241   6.245   1.815 -0.1804 -0.7651  0.1348
 1167TFB     F319834   0.314   6.068   1.941 -0.4127 -0.4038 -0.3566
 1167TFB     F419835   0.179   6.232   2.036  0.5242 -0.4416  0.1549
 1168TFB      B19836   2.828   2.511   3.570  0.4368  0.6587  0.3496
 1168TFB     F119837   2.806   2.591   3.677  0.1734 -0.3657  0.5305
 1168TFB     F219838   2.841   2.387   3.604  0.4973 -0.2050  0.0476
 1168TFB     F319839   2.727   2.509   3.480 -0.0713 -0.2854 -0.2942
 1168TFB     F419840   2.943   2.543   3.509  0.4956 -0.1625  0.4802
 1169TFB      B19841   2.204   3.260   5.232 -0.0486  0.6162 -0.1071
 1169TFB     F119842   2.204   3.230   5.098 -0.1438 -0.4878  0.2417
 1169TFB     F219843   2.123   3.176   5.298  0.2437 -0.3716  0.4463
 1169TFB     F319844   2.330   3.225   5.283  0.4591  0.3679 -0.1774
 1169TFB     F419845   2.169   3.391   5.267  0.0686 -0.2857  0.4702
 1170TFB      B19846   2.088   2.732   0.470  0.1807 -0.4107  0.3239
 1170TFB     F119847   2.137   2.857   0.518 -0.0079 -0.3372  0.0918
 1170TFB     F219848   2.164   2.693   0.361  0.5346 -0.1494 -0.5717
 1170TFB     F319849   2.122   2.632   0.562  0.5192  0.0691 -0.2521
 1170TFB     F419850   1.947   2.746   0.446 -0.4418 -0.0883 -0.7442
 1171TFB      B19851   5.293   5.297   3.399  0.6946 -0.5307 -0.3906
 1171TFB     F119852   5.253   5.399   3.307  0.3120 -0.3821 -0.5250
 1171TFB     F219853   5.289   5.174   3.341 -0.2176 -0.6392 -0.4818
 1171TFB     F319854   5.424   5.324   3.441 -0.2999 -0.0211  0.0099
 1171TFB     F419855   5.200   5.280   3.502 -0.2561 -0.0866 -0.5324
 1172TFB      B19856   4.801   1.307   5.409 -0.2927  0.5727  0.2236
 1172TFB     F119857   4.677   1.322   5.463 -0.2328  0.1901 -0.3111
 1172TFB     F219858   4.796   1.206   5.314  0.1049 -0.0483 -0.1572
 1172TFB     F319859   4.859   1.421   5.357 -0.0502 -0.4066 -0.1761
 1172TFB     F419860   4.886   1.252   5.504 -0.2225  0.6365  0.0752
 1173TFB      B19861   0.316   0.269   2.739 -0.2257  0.1166  0.2903
 1173TFB     F119862   0.275   0.296   2.609 -0.0445 -0.2336  0.0139
 1173TFB     F219863   0.338   0.128   2.754 -0.1928 -0.5705  0.3738
 1173TFB     F319864   0.441   0.326   2.757  0.0954  0.5361  0.3073
 1173TFB     F419865   0.228   0.317   2.828 -0.5228 -0.0799 -0.3670
 1174TFB      B19866   5.342   2.070   1.416  0.1286 -0.7137 -0.4383
 1174TFB     F119867   5.398   1.984   1.505 -0.3934  0.0858 -0.1047
 1174TFB     F219868   5.236   2.117   1.497 -0.1962  0.3756  0.2032
 1174TFB     F319869   5.426   2.181   1.396  0.0574  0.0738 -0.5800
 1174TFB     F419870   5.310   2.005   1.293 -0.0884  0.4188  0.3255
 1175TFB      B19871   2.905   4.660   1.214  0.5751 -0.2660 -0.2246
 1175TFB     F119872   2.930   4.729   1.099 -0.2186  0.2997 -0.6601
 1175TFB     F219873   3.014   4.583   1.252  0.6389 -0.2185 -0.4921
 1175TFB     F319874   2.870   4.749   1.313 -0.2393  0.1138  0.4113
 1175TFB     F419875   2.797   4.576   1.194  0.2908  0.1823  0.2433
 1176TFB      B19876   2.825   5.457   2.294 -0.4838 -0.0239  0.5611
 1176TFB     F119877   2.776   5.502   2.415 -0.1962  0.3211  0.2393
 1176TFB     F219878   2.916   5.558   2.267  0.0878 -0.3704  0.1616
 1176TFB     F319879   2.875   5.328   2.298  0.6402 -0.0217 -0.0203
 1176TFB     F419880   2.729   5.460   2.198  0.1576 -0.0942  0.5126
 1177TFB      B19881   3.706   2.229   4.981 -0.4822  1.1250 -0.4066
 1177TFB     F119882   3.797   2.303   5.045  0.2172  0.5951 -0.0422
 1177TFB     F219883   3.600   2.179   5.054  0.4557  0.1444 -0.1966
 1177TFB     F319884   3.642   2.302   4.886  0.2135 -0.5743  0.1585
 1177TFB     F419885   3.765   2.129   4.903  0.1094  0.6624  0.1107
 1178TFB      B19886   1.167   2.083   3.038 -0.2105  0.5657  0.2120
 1178TFB     F119887   1.299   2.104   3.001 -0.2261 -0.1487 -0.2714
 1178TFB     F219888   1.148   2.106   3.177  0.2707 -0.0298 -0.6058
 1178TFB     F319889   1.082   2.176   2.985  0.0343 -1.0064 -0.0423
 1178TFB     F419890   1.135   1.941   3.028  0.3763  0.3717 -0.0105
 1179TFB      B19891   4.243   1.423   0.363  0.1039  0.2961 -0.0236
 1179TFB     F119892   4.153   1.415   0.263  0.3454  0.2339  0.8627
 1179TFB     F219893   4.368   1.416   0.303 -0.9247  0.2976  0.2924
 1179TFB     F319894   4.211   1.536   0.442  0.4719  0.3082  0.3989
 1179TFB     F419895   4.232   1.306   0.446 -0.7035 -0.6742  0.0173
 1180TFB      B19896   2.244   0.084   0.901 -0.1350 -0.0454  0.3952
 1180TFB     F119897   2.215   0.150   0.780 -0.1128 -0.2413 -0.0419
 1180TFB     F219898   2.212  -0.050   0.890 -0.2888  0.1737 -0.3101
 1180TFB     F319899   2.379   0.091   0.916  0.3693 -0.1804 -0.0771
 1180TFB     F419900   2.166   0.142   0.997  0.5367 -0.3517 -0.8230
 1181TFB      B19901   5.139   4.396   0.457  0.1302  0.5901 -0.2003
 1181TFB     F119902   5.095   4.286   0.530 -0.0963 -0.2397 -0.7276
 1181TFB     F219903   5.097   4.504   0.515 -0.0468 -0.5481  0.3732
 1181TFB     F319904   5.274   4.389   0.463 -0.5885 -0.1309  0.3157
 1181TFB     F419905   5.107   4.388   0.326 -0.4624  0.2707 -0.2461
 1182TFB      B19906   2.279   5.100   1.296  0.5723  0.5085  0.8437
 1182TFB     F119907   2.319   5.170   1.410  0.3921 -0.1458  0.0908
 1182TFB     F219908   2.152   5.053   1.328 -0.1675  0.0159  0.5575
 1182TFB     F319909   2.295   5.193   1.195 -0.2647  0.3038  0.0669
 1182TFB     F419910   2.376   5.012   1.282 -0.2379 -0.5955  0.2018
 1183TFB      B19911   6.056   5.070   4.487  0.3662 -0.2423  0.4079
 1183TFB     F119912   5.986   4.953   4.527  0.0180  0.2047  0.3361
 1183TFB     F219913   6.067   5.158   4.590 -0.6206  0.5989 -0.4648
 1183TFB     F319914   6.179   5.019   4.438  0.3808 -0.2220 -0.0537
 1183TFB     F419915   5.979   5.129   4.387  0.1524 -0.3744  0.0758
 1184TFB      B19916   1.614   1.727   1.979  0.3374  0.3946  0.1409
 1184TFB     F119917   1.679   1.842   1.931  0.0339 -0.3061  0.3872
 1184TFB     F219918   1.551   1.744   2.110  0.0306 -0.1480 -0.0200
 1184TFB     F319919   1.521   1.683   1.884  0.3908 -0.0010  0.6850
 1184TFB     F419920   1.706   1.624   2.002  0.0220 -0.0851  0.2747
 1185TFB      B19921   3.051   5.875   0.970 -0.1421 -0.6583 -0.3617
 1185TFB     F119922   3.170   5.946   1.001  0.6098  0.1165  0.0925
 1185TFB     F219923   2.971   5.949   0.890 -0.0913 -0.6241  0.0305
 1185TFB     F319924   3.084   5.750   0.915  0.9151 -0.2459 -0.4317
 1185TFB     F419925   2.987   5.858   1.093 -0.1443 -0.1385 -0.5984
 1186TFB      B19926   3.637   5.931   5.174 -0.1360 -0.0759 -0.2495
 1186TFB     F119927   3.698   5.836   5.092 -0.4793  0.1247  0.4535
 1186TFB     F219928   3.517   5.892   5.221 -0.2577 -0.0335 -0.1265
 1186TFB     F319929   3.711   5.951   5.290 -0.5930 -0.0349 -0.1553
 1186TFB     F419930   3.634   6.052   5.108  0.1748  0.7737  0.0040
 1187TFB      B19931   2.270   1.319   5.185  0.2306  0.1474  0.1261
 1187TFB     F119932   2.215   1.332   5.060  0.3664 -0.5473 -0.1618
 1187TFB     F219933   2.368   1.408   5.205 -0.3933 -0.3959  0.0244
 1187TFB     F319934   2.181   1.343   5.280  0.7761 -0.6892 -0.3306
 1187TFB     F419935   2.310   1.194   5.216 -0.0404 -0.0612 -0.3411
 1188TFB      B19936   3.117   0.842   6.159 -0.2073 -0.1442  0.1200
 1188TFB     F119937   3.245   0.855   6.215  0.1663  0.1000 -0.5509
 1188TFB     F219938   3.047   0.953   6.210  0.2127  0.3372 -0.3338
 1188TFB     F319939   3.124   0.853   6.023 -0.4837 -0.2492 -0.2110
 1188TFB     F419940   3.062   0.729   6.200  0.1107 -0.3620 -0.2569
 1189TFB      B19941   0.815   3.913   1.821 -0.6252 -0.3696 -0.1160
 1189TFB     F119942   0.832   3.811   1.906 -0.3689  0.2505 -0.1040
 1189TFB     F219943   0.691   3.915   1.760 -0.0320  0.2321  0.3023
 1189TFB     F319944   0.844   4.029   1.890 -0.8468 -0.0362 -0.2559
 1189TFB     F419945   0.910   3.894   1.727 -0.1192 -0.3234  0.0308
 1190TFB      B19946   0.552   5.473   5.734  0.0051 -0.2186 -0.4487
 1190TFB     F119947   0.653   5.435   5.816  0.1330 -0.2961  0.3077
 1190TFB     F219948   0.517   5.604   5.757 -0.3288 -0.0862  0.5048
 1190TFB     F319949   0.585   5.457   5.601 -0.2653  0.3453 -0.0121
 1190TFB     F419950   0.445   5.383   5.740  0.4179  0.2557  0.1417
 1191TFB      B19951   0.191   1.970   4.393  0.2157  0.3441  0.3256
 1191TFB     F119952   0.218   1.902   4.507  0.3062 -0.3555 -0.8092
 1191TFB     F219953   0.128   2.087   4.417  0.4174 -0.4032 -0.1070
 1191TFB     F319954   0.316   1.998   4.330 -0.7377  0.3053  0.0854
 1191TFB     F419955   0.111   1.887   4.305 -0.7869  0.2697 -0.1456
 1192TFB      B19956   5.167   5.120   5.402  0.1334 -0.7294  0.0105
 1192TFB     F119957   5.290   5.091   5.462 -0.5553 -0.6273  0.5618
 1192TFB     F219958   5.090   5.190   5.493  0.5420 -0.3268  0.3932
 1192TFB     F319959   5.177   5.187   5.289 -0.1414 -0.6479  0.2071
 1192TFB     F419960   5.104   5.001   5.370 -0.6915 -0.1534  0.1656
 1193TFB      B19961   1.971   0.779   0.884  0.9892 -0.0689 -0.5705
 1193TFB     F119962   1.951   0.758   1.018  0.0135  0.5872  0.2387
 1193TFB     F219963   2.101   0.756   0.856 -0.6026 -0.4152 -0.5540
 1193TFB     F319964   1.890   0.682   0.828  0.2673  0.0639  0.1681
 1193TFB     F419965   1.920   0.899   0.842 -0.2745 -0.3876 -0.1942
 1194TFB      B19966   1.355   0.166   3.704 -0.2390  0.2824 -0.0109
 1194TFB     F119967   1.349   0.295   3.666 -0.1216  0.0407 -0.2481
 1194TFB     F219968   1.452   0.087   3.648  0.2401 -0.4826 -0.5857
 1194TFB     F319969   1.388   0.176   3.842  0.8696  0.7858 -0.1294
 1194TFB     F419970   1.241   0.098   3.684  0.3134 -0.1688  0.5881
 1195TFB      B19971   4.439   1.564   5.929  0.3872  1.0690 -0.5057
 1195TFB     F119972   4.305   1.564   5.909  0.1351 -0.6366 -0.0545
 1195TFB     F219973   4.489   1.698   5.932  0.3434  0.2305  0.1332
 1195TFB     F319974   4.472   1.489   6.045  0.9187  0.1046  0.3933
 1195TFB     F419975   4.501   1.498   5.824  0.0201  0.0341 -0.4016
 1196TFB      B19976   0.174   3.901   4.624  0.2778  0.2734 -0.2762
 1196TFB     F119977   0.114   3.830   4.726  0.3898  0.4198 -0.1257
 1196TFB     F219978   0.180   4.033   4.663 -0.1934 -0.1441 -0.3010
 1196TFB     F319979   0.300   3.851   4.610  0.0297 -0.0848 -0.3039
 1196TFB     F419980   0.099   3.880   4.515  0.2932 -0.3662 -0.0388
 1197TFB      B19981   3.445   4.690   0.505 -0.2249  0.7188  0.0507
 1197TFB     F119982   3.385   4.805   0.542  0.0450 -0.6492  0.3367
 1197TFB     F219983   3.354   4.592   0.521  0.4708 -0.3406  0.1383
 1197TFB     F319984   3.496   4.704   0.380 -0.0215  0.6395 -0.0084
 1197TFB     F419985   3.551   4.667   0.593 -0.3275  0.2953 -0.0072
 1198TFB      B19986   0.035   2.506   3.861  0.4715  0.3025 -0.2158
 1198TFB     F119987   0.120   2.406   3.813  0.2918 -0.0523 -0.5662
 1198TFB     F219988  -0.031   2.455   3.970 -0.0729  0.0669  0.0888
 1198TFB     F319989   0.105   2.620   3.902  0.0406 -0.5076 -0.1150
 1198TFB     F419990  -0.073   2.537   3.776  0.6855 -0.1523  0.1624
 1199TFB      B19991   0.908   1.947   0.940  0.1143  0.2911 -0.8697
 1199TFB     F119992   0.943   1.862   0.837  0.1815  0.0202 -0.2559
 1199TFB     F219993   0.839   1.876   1.040  0.4145 -0.2143 -0.3597
 1199TFB     F319994   1.020   1.995   1.004 -0.5586 -0.4133 -0.2832
 1199TFB     F419995   0.836   2.055   0.885  0.4424  0.4008  0.0972
 1200TFB      B19996   5.992   0.090   4.649  0.3446 -0.6151 -1.2015
 1200TFB     F119997   5.887   0.010   4.633  0.3154 -0.2360 -0.6719
 1200TFB     F219998   6.054   0.030   4.754  0.2964 -0.1356  0.0827
 1200TFB     F319999   6.084   0.062   4.549  0.0377  0.0326 -0.1638
 1200TFB     F420000   5.975   0.221   4.668 -0.5105 -0.6979 -0.3600
 1201TFB      B20001   0.506   0.037   6.005  0.0815 -0.2002  1.3778
 1201TFB     F120002   0.580   0.155   6.015 -0.3652 -0.5746  0.3191
 1201TFB     F220003   0.429  -0.011   6.108  0.1143  0.4598  0.0772
 1201TFB     F320004   0.446   0.040   5.883 -0.0822 -0.0808 -0.4379
 1201TFB     F420005   0.608  -0.055   5.994 -0.2782  0.4070 -0.2642
 1202TFB      B20006   4.114   3.409   3.598 -0.0153 -0.6491  0.7930
 1202TFB     F120007   4.147   3.382   3.469 -0.1985 -0.5164 -0.3241
 1202TFB     F220008   4.211   3.360   3.684 -0.0693 -0.1722  0.2036
 1202TFB     F320009   4.116   3.544   3.622 -0.2529 -0.1969 -0.0383
 1202TFB     F420010   3.995   3.356   3.624 -0.1628 -0.0308  0.7430
 1203TFB      B20011   5.233   5.291   2.029 -0.3442  0.4270 -0.8026
 1203TFB     F120012   5.219   5.424   2.009 -0.0353  0.3256  0.4215
 1203TFB     F220013   5.111   5.224   2.026  0.0016 -0.0674 -0.0205
 1203TFB     F320014   5.304   5.249   1.923  0.0337  0.2324 -0.1307
 1203TFB     F420015   5.307   5.263   2.149 -0.0153  0.0162  0.0714
 1204TFB      B20016   4.339   4.126   5.521  0.1425 -0.2752 -0.2490
 1204TFB     F120017   4.425   4.034   5.467 -0.0303  0.3139 -0.0585
 1204TFB     F220018   4.221   4.059   5.556 -0.3790 -0.1574 -0.1410
 1204TFB     F320019   4.389   4.173   5.634 -0.0889  0.2916  0.1433
 1204TFB     F420020   4.316   4.230   5.439 -0.0732  0.1307  0.6705
 1205TFB      B20021   1.889   1.879   2.465  0.2340 -0.3001  0.0343
 1205TFB     F120022   1.800   1.861   2.359  0.5378 -0.1529 -0.0646
 1205TFB     F220023   1.796   1.903   2.566 -0.5489  0.1114  0.1201
 1205TFB     F320024   1.967   1.765   2.495 -0.5191  0.2062 -0.4094
 1205TFB     F420025   1.972   1.979   2.429  0.2305 -0.1402  0.1950
 1206TFB      B20026   6.293   0.068   0.754  0.2680  0.1729 -0.7489
 1206TFB     F120027   6.279  -0.018   0.862  0.2055  0.3556 -0.4427
 1206TFB     F220028   6.321  -0.013   0.643  0.0970 -0.2475  0.3248
 1206TFB     F320029   6.180   0.137   0.716 -0.0729  0.3188  0.5453
 1206TFB     F420030   6.395   0.161   0.775  0.7871 -0.0273  0.3445
 1207TFB      B20031   1.192   3.376   1.913 -0.6098  0.0468  0.4360
 1207TFB     F120032   1.166   3.334   1.785  0.3447 -0.5553 -0.1411
 1207TFB     F220033   1.327   3.401   1.920 -0.2255  0.1897 -0.1332
 1207TFB     F320034   1.128   3.495   1.942 -0.3858  0.4111 -0.0323
 1207TFB     F420035   1.156   3.278   2.000  0.0969  0.2710 -0.4632
 1208TFB      B20036   3.241   0.157   0.547 -0.3828 -0.2543  0.1341
 1208TFB     F120037   3.227   0.025   0.510  0.1496 -0.2766  0.0873
 1208TFB     F220038   3.374   0.188   0.565  0.1758  0.0438 -0.0187
 1208TFB     F320039   3.199   0.224   0.432  0.0872  0.2626  0.0772
 1208TFB     F420040   3.163   0.178   0.655  0.1049 -0.3356  0.4179
 1209TFB      B20041   3.521   0.437   2.935  0.1372 -0.0382 -0.2391
 1209TFB     F120042   3.480   0.514   3.048 -0.3533 -0.0378  0.4333
 1209TFB     F220043   3.623   0.342   2.965 -0.0475  0.0741  0.2161
 1209TFB     F320044   3.409   0.383   2.871 -0.4838  0.2509 -0.5422
 1209TFB     F420045   3.579   0.540   2.855  0.4801 -0.2010  0.1245
 1210TFB      B20046   2.612   1.188   1.971 -0.4468 -0.0018 -0.1280
 1210TFB     F120047   2.579   1.195   1.838  0.1757  0.2484  0.5334
 1210TFB     F220048   2.570   1.072   2.027 -0.0805  0.2384 -0.3830
 1210TFB     F320049   2.745   1.177   1.984  0.3232  0.3983 -0.4627
 1210TFB     F420050   2.562   1.286   2.051 -0.0864  0.0978 -0.2577
 1211TFB      B20051   1.443   3.740   0.851  0.5263  0.3072 -0.5258
 1211TFB     F120052   1.546   3.657   0.897  0.0490 -0.2068 -0.4219
 1211TFB     F220053   1.371   3.788   0.962 -0.7485  0.2830  0.1817
 1211TFB     F320054   1.488   3.848   0.784 -0.7110  0.7823 -0.5019
 1211TFB     F420055   1.354   3.662   0.775  0.0240  0.1709  0.0474
 1212TFB      B20056   2.117   2.549   2.322  0.2775 -0.4926 -0.0275
 1212TFB     F120057   2.198   2.609   2.421  0.3017 -0.0040 -0.4044
 1212TFB     F220058   2.197   2.478   2.240 -0.0062  0.3633 -0.5626
 1212TFB     F320059   2.007   2.477   2.376  0.5287  0.4698 -0.2800
 1212TFB     F420060   2.077   2.662   2.251 -0.8117 -0.4889  0.2387
 1213TFB      B20061   2.949   0.315   3.104  0.0574 -0.6882 -0.3174
 1213TFB     F120062   2.918   0.347   2.970  0.1018 -0.2095 -0.1903
 1213TFB     F220063   2.923   0.424   3.185 -0.5098 -0.0719 -0.0006
 1213TFB     F320064   2.867   0.208   3.141 -0.1183  0.0985 -0.0825
 1213TFB     F420065   3.087   0.278   3.108 -0.2627  0.1371  0.3525
 1214TFB      B20066   0.027   2.208   5.213  0.2432  0.3390  0.6235
 1214TFB     F120067  -0.065   2.127   5.144  0.3670  0.5707  0.1110
 1214TFB     F220068  -0.034   2.332   5.213  0.1663  0.0114 -0.1518
 1214TFB     F320069   0.052   2.150   5.335 -0.2473  0.4902 -0.0036
 1214TFB     F420070   0.138   2.222   5.144 -0.3574  0.2037  0.6584
 1215TFB      B20071   0.370   4.459   1.862  0.2449 -0.3194  0.5311
 1215TFB     F120072   0.280   4.359   1.872 -0.1380  0.3339 -0.2765
 1215TFB     F220073   0.373   4.538   1.978 -0.2011  0.6558 -0.2977
 1215TFB     F320074   0.495   4.411   1.854 -0.4800  0.4567  0.2423
 1215TFB     F420075   0.352   4.547   1.756 -0.1245 -0.8143  0.1031
 1216TFB      B20076   4.863   3.917   5.628 -0.1112 -0.7706 -0.3233
 1216TFB     F120077   4.990   3.960   5.655 -0.4093  0.0355  0.0224
 1216TFB     F220078   4.856   3.900   5.492 -0.0695  0.1748  0.6771
 1216TFB     F320079   4.832   3.798   5.687 -0.0743  0.0732  0.0506
 1216TFB     F420080   4.760   4.015   5.663  0.3853 -0.0314 -0.0610
 1217TFB      B20081   3.702   6.186   3.633  1.0824 -0.6208  0.4453
 1217TFB     F120082   3.631   6.247   3.538  0.0587  0.1552 -0.5988
 1217TFB     F220083   3.834   6.226   3.606  0.3275  0.3169 -0.2675
 1217TFB     F320084   3.674   6.242   3.753 -0.5789 -0.2562 -0.0950
 1217TFB     F420085   3.672   6.056   3.648  0.2402 -0.0438  0.0590
 1218TFB      B20086   5.454   0.193   3.624  0.3075  1.1005 -0.2511
 1218TFB     F120087   5.552   0.187   3.526 -0.5235  0.0811 -0.1762
 1218TFB     F220088   5.453   0.322   3.673  0.6376  0.1265 -0.2380
 1218TFB     F320089   5.337   0.148   3.562  0.0585 -0.0116 -0.5697
 1218TFB     F420090   5.489   0.100   3.726 -0.3386 -0.1044  0.3653
 1219TFB      B20091   3.816   2.128   5.479  0.3507  0.2124 -0.4953
 1219TFB     F120092   3.743   2.185   5.585 -0.4929  0.0329  0.1359
 1219TFB     F220093   3.751   2.169   5.362 -0.0020  0.4450  0.1718
 1219TFB     F320094   3.942   2.192   5.470 -0.2421 -0.1966  0.0823
 1219TFB     F420095   3.829   1.992   5.468 -0.0976  0.0361 -0.0125
 1220TFB      B20096   1.579   5.032   4.657 -0.3528 -0.2913  0.2210
 1220TFB     F120097   1.471   5.057   4.578  0.0761 -0.1842  0.0741
 1220TFB     F220098   1.544   5.016   4.789 -0.0912 -0.3836 -0.3884
 1220TFB     F320099   1.650   4.924   4.605  0.1888  0.1124 -0.4499
 1220TFB     F420100   1.667   5.137   4.646 -0.6062  0.1410  0.6380
 1221TFB      B20101   1.521   5.263   1.598  0.4985 -0.8764 -0.0890
 1221TFB     F120102   1.564   5.362   1.505 -0.2329  0.3230 -0.6015
 1221TFB     F220103   1.588   5.147   1.585 -0.2493  0.3782 -0.4919
 1221TFB     F320104   1.536   5.303   1.731  0.6497 -0.2825  0.0625
 1221TFB     F420105   1.387   5.249   1.577  0.4954 -0.2408 -0.0511
 1222TFB      B20106   0.120   4.050   3.925 -0.0552  0.8224  0.5211
 1222TFB     F120107   0.225   3.957   3.920 -0.0505  0.3095  0.0385
 1222TFB     F220108   0.172   4.172   3.912  0.0360  0.1320  0.1256
 1222TFB     F320109   0.042   4.031   3.804  0.3907 -0.0319 -0.4193
 1222TFB     F420110   0.034   4.046   4.035 -0.5605 -0.7177  0.5643
 1223TFB      B20111   0.815   1.455   2.612 -0.1410  0.3757 -0.0114
 1223TFB     F120112   0.873   1.465   2.489  0.0572 -0.1897  0.0469
 1223TFB     F220113   0.792   1.586   2.653 -0.4800 -0.6790  0.1490
 1223TFB     F320114   0.684   1.407   2.588  0.1225 -0.4819  0.5918
 1223TFB     F420115   0.890   1.374   2.700 -0.5413  0.6045  0.4291
 1224TFB      B20116   3.945   3.993   6.334 -0.5935  0.0406  0.5010
 1224TFB     F120117   3.893   3.983   6.465  0.7183 -0.2047  0.1371
 1224TFB     F220118   3.876   4.093   6.261  0.2057  0.0277  0.0273
 1224TFB     F320119   4.078   4.034   6.337 -0.8183  0.2495  0.2399
 1224TFB     F420120   3.932   3.867   6.266  0.0507 -0.2370 -0.3419
 1225TFB      B20121   1.175   6.310   0.428  0.2349  0.3269 -0.3266
 1225TFB     F120122   1.178   6.330   0.566 -0.0020  0.2309  0.0543
 1225TFB     F220123   1.300   6.347   0.382  0.3388  0.4683 -0.5849
 1225TFB     F320124   1.169   6.176   0.399 -0.0589 -0.1926 -0.4207
 1225TFB     F420125   1.061   6.378   0.374 -0.4460  0.4866  0.0890
 1226TFB      B20126   6.190   3.285   2.851 -0.1537  0.4214 -0.9727
 1226TFB     F120127   6.084   3.206   2.886 -0.2531  0.6120  0.0436
 1226TFB     F220128   6.186   3.395   2.935  0.1080  0.4022  0.6930
 1226TFB     F320129   6.301   3.209   2.856 -0.4630 -0.3224 -0.5299
 1226TFB     F420130   6.173   3.319   2.717  0.0134  0.2595  0.2166
 1227TFB      B20131   4.509   0.515   4.492 -0.0879  0.5007 -0.0722
 1227TFB     F120132   4.502   0.524   4.352  0.2431 -0.1160  0.2003
 1227TFB     F220133   4.518   0.387   4.534  0.1316 -0.1043  0.0850
 1227TFB     F320134   4.616   0.597   4.530 -0.5917  0.0308  0.8921
 1227TFB     F420135   4.385   0.558   4.537 -0.0165 -0.7823  0.0715
 1228TFB      B20136   5.232   6.238   5.053  0.7043  0.5288 -0.5921
 1228TFB     F120137   5.170   6.138   5.124 -0.4188  0.4096 -0.0426
 1228TFB     F220138   5.135   6.331   5.025 -0.2398 -0.2048  0.1449
 1228TFB     F320139   5.326   6.302   5.133 -0.5943  0.1092 -0.2248
 1228TFB     F420140   5.282   6.195   4.930  0.4330 -0.3502  0.3635
 1229TFB      B20141   5.294   5.642   1.320 -0.4454 -0.3091  0.4640
 1229TFB     F120142   5.266   5.661   1.189  0.4085 -0.7274  0.1771
 1229TFB     F220143   5.425   5.622   1.331 -0.5201  0.5210  0.2718
 1229TFB     F320144   5.265   5.764   1.385 -0.0520  0.5355 -0.2032
 1229TFB     F420145   5.220   5.540   1.371  0.4339 -0.2195 -0.0205
 1230TFB      B20146   3.790   5.065   3.138  0.0385 -0.5754 -0.2195
 1230TFB     F120147   3.818   5.044   3.276  0.0543 -0.1688  0.4552
 1230TFB     F220148   3.657   5.074   3.109 -0.0969  0.2355  0.1809
 1230TFB     F320149   3.847   5.191   3.110  0.4823 -0.0485  0.0098
 1230TFB     F420150   3.845   4.965   3.069 -0.2005  0.4323 -0.0283
 1231TFB      B20151   3.174   4.847   6.054  0.3647  0.5627 -0.1612
 1231TFB     F120152   3.057   4.888   5.992 -0.0128  0.0629 -0.0144
 1231TFB     F220153   3.240   4.954   6.115  0.0413  0.2798 -0.9030
 1231TFB     F320154   3.130   4.773   6.159 -0.5614  0.2141 -0.4793
 1231TFB     F420155   3.250   4.755   5.986 -0.2225 -0.1409  0.2476
 1232TFB      B20156   1.249   1.427   1.098  0.0022  0.3028 -0.2480
 1232TFB     F120157   1.204   1.466   0.978  0.0914  0.4306  0.4734
 1232TFB     F220158   1.164   1.328   1.153 -0.2346 -0.5534 -0.1082
 1232TFB     F320159   1.380   1.377   1.093 -0.6603 -1.0173  0.2991
 1232TFB     F420160   1.246   1.540   1.162  0.0457 -0.3876 -0.1315
 1233TFB      B20161   1.887   3.260   4.557 -0.6128  0.1221  0.6372
 1233TFB     F120162   1.976   3.336   4.494  1.1473 -0.3577  0.0964
 1233TFB     F220163   1.956   3.159   4.627  0.3455 -0.0436 -0.5756
 1233TFB     F320164   1.798   3.344   4.636 -0.1340 -0.3173 -0.0376
 1233TFB     F420165   1.805   3.199   4.461 -0.2070 -0.1495 -0.2852
 1234TFB      B20166   1.705   4.802   5.853  0.4401 -0.0127  0.6429
 1234TFB     F120167   1.667   4.702   5.765  0.3767  0.2225  0.1697
 1234TFB     F220168   1.802   4.771   5.947  0.2075 -0.3635 -0.4732
 1234TFB     F320169   1.769   4.899   5.782 -0.2049 -0.2099 -0.1424
 1234TFB     F420170   1.591   4.868   5.911  0.0211 -0.6919  0.1842
 1235TFB      B20171   2.535   2.138   5.066 -0.5903 -0.0336  0.0807
 1235TFB     F120172   2.415   2.163   5.125  0.5176 -0.4360 -0.7082
 1235TFB     F220173   2.536   2.197   4.940 -0.1054  0.1553  0.2298
 1235TFB     F320174   2.632   2.200   5.151 -0.1793  0.3919 -0.4802
 1235TFB     F420175   2.563   2.009   5.043 -0.2870 -0.0213  0.1921
 1236TFB      B20176   0.999   5.513   2.665  1.0606 -0.3409  0.0577
 1236TFB     F120177   0.877   5.560   2.710  0.2143 -0.1568 -0.2967
 1236TFB     F220178   0.971   5.443   2.549 -0.3698 -0.8309 -0.4223
 1236TFB     F320179   1.067   5.613   2.612 -0.1323 -0.3856 -0.3456
 1236TFB     F420180   1.074   5.451   2.765 -0.2205 -0.3678 -0.3557
 1237TFB      B20181   3.897   5.991   5.817 -0.6300  0.7108  0.0861
 1237TFB     F120182   3.848   5.887   5.736 -0.1025 -1.3492 -0.2110
 1237TFB     F220183   3.805   6.070   5.878 -0.4557  0.0263 -0.1157
 1237TFB     F320184   3.979   5.931   5.912  0.5318 -0.0590 -0.0923
 1237TFB     F420185   3.978   6.071   5.728 -0.1177  0.3176 -0.4484
 1238TFB      B20186   1.938   5.760   0.992 -0.8324 -0.0400 -0.9366
 1238TFB     F120187   1.979   5.670   0.894  0.1852  0.7166  0.2010
 1238TFB     F220188   2.047   5.844   1.016  0.2131 -0.6214 -0.0124
 1238TFB     F320189   1.829   5.829   0.945 -0.1425 -0.1549 -0.6560
 1238TFB     F420190   1.904   5.706   1.117 -0.3253  0.1150 -0.2931
 1239TFB      B20191   4.130   5.393   5.707  0.5163  0.5155  0.1347
 1239TFB     F120192   3.994   5.374   5.686  0.5478 -0.0993 -0.7139
 1239TFB     F220193   4.169   5.518   5.686 -0.6751 -0.6227 -0.1819
 1239TFB     F320194   4.145   5.370   5.848  0.3629  0.0663 -0.2986
 1239TFB     F420195   4.208   5.307   5.626  0.9782 -0.1003  0.6191
 1240TFB      B20196   4.725   0.199   1.293  0.1823 -0.0706  0.0768
 1240TFB     F120197   4.735   0.204   1.159  0.1743  0.2107 -0.2290
 1240TFB     F220198   4.644   0.295   1.347  0.0691  0.4345 -0.5188
 1240TFB     F320199   4.666   0.075   1.303  0.6830 -0.2108  0.0828
 1240TFB     F420200   4.848   0.191   1.358  0.7738 -0.6786  0.2051
 1241TFB      B20201   2.262   2.655   4.188 -0.6120 -0.9085 -0.4119
 1241TFB     F120202   2.242   2.516   4.193 -0.1371  0.2026  0.2874
 1241TFB     F220203   2.288   2.705   4.316  0.3387 -0.3038  0.4241
 1241TFB     F320204   2.379   2.673   4.108 -0.0555 -0.0195  0.1824
 1241TFB     F420205   2.154   2.715   4.127  0.1854  0.5572 -0.2585
 1242TFB      B20206   3.244   3.408   1.918  0.0649 -0.3781 -0.3790
 1242TFB     F120207   3.343   3.417   2.007 -0.5945  0.4422 -0.1570
 1242TFB     F220208   3.125   3.440   1.981 -0.5745 -0.0024 -0.3669
 1242TFB     F320209   3.272   3.486   1.806 -0.6025  0.0238  0.5670
 1242TFB     F420210   3.234   3.280   1.873  0.1818  0.0585 -0.1821
 1243TFB      B20211   1.142   4.999   4.900  0.0886 -0.4978  0.1519
 1243TFB     F120212   1.065   4.960   4.798  0.1547  0.0689  0.4798
 1243TFB     F220213   1.116   5.133   4.908 -0.3165 -0.0448 -0.0467
 1243TFB     F320214   1.104   4.952   5.025  0.1824  0.5019  0.7346
 1243TFB     F420215   1.269   4.965   4.872  0.0002  0.2499 -0.2553
 1244TFB      B20216   3.925   5.806   1.574  0.0470 -0.2881 -0.4458
 1244TFB     F120217   3.898   5.824   1.432 -0.6592  0.0935 -0.8446
 1244TFB     F220218   3.839   5.697   1.607  0.3698 -0.5093 -0.2325
 1244TFB     F320219   4.056   5.765   1.576  0.1283 -0.0670 -0.2125
 1244TFB     F420220   3.911   5.926   1.639 -0.5123  0.1139  0.3719
 1245TFB      B20221   2.130   0.456   5.431 -0.0791  0.8200  0.0912
 1245TFB     F120222   2.237   0.438   5.344 -0.3227  0.8487  0.0503
 1245TFB     F220223   2.017   0.405   5.378  0.1284 -0.3148  0.3431
 1245TFB     F320224   2.148   0.381   5.550 -0.2077 -0.4898  0.4039
 1245TFB     F420225   2.109   0.580   5.457 -0.9013  0.3972 -0.4684
 1246TFB      B20226   5.405   2.855   4.485 -0.1716  0.4035 -0.3972
 1246TFB     F120227   5.371   2.750   4.404 -0.2106 -0.3647 -0.4987
 1246TFB     F220228   5.389   2.976   4.417 -0.1629 -1.1154  0.0583
 1246TFB     F320229   5.325   2.848   4.601 -0.8536  0.4477  0.0870
 1246TFB     F420230   5.537   2.842   4.533 -0.2378 -0.1918 -0.1714
 1247TFB      B20231   1.760   5.172   5.119 -0.4452  0.2059 -0.4215
 1247TFB     F120232   1.705   5.058   5.185  0.2009 -0.2475 -0.0064
 1247TFB     F220233   1.883   5.199   5.179  0.0799 -0.2058 -0.6028
 1247TFB     F320234   1.771   5.149   4.981  0.2390 -0.3105  0.4058
 1247TFB     F420235   1.687   5.289   5.136 -0.3429  0.1822  0.1241
 1248TFB      B20236   5.324   4.917   3.825 -0.5450 -0.0683  0.1002
 1248TFB     F120237   5.325   4.820   3.728 -0.0037  0.1533 -0.3967
 1248TFB     F220238   5.203   4.896   3.890  0.2743 -0.0599 -0.4311
 1248TFB     F320239   5.436   4.907   3.906 -0.1965  0.4935 -0.1987
 1248TFB     F420240   5.331   5.032   3.761  0.1737  0.6176  0.1016
 1249TFB      B20241   3.571   2.462   1.742  0.1629  0.4943 -0.1623
 1249TFB     F120242   3.657   2.448   1.622  0.0435 -0.4758  0.0169
 1249TFB     F220243   3.605   2.372   1.838  0.0922 -0.1205  0.1156
 1249TFB     F320244   3.586   2.591   1.789  0.1115 -0.0314  0.1671
 1249TFB     F420245   3.439   2.438   1.703  0.2123  0.2641 -0.0150
 1250TFB      B20246   5.488   4.934   0.947 -0.1431 -0.9373 -0.2059
 1250TFB     F120247   5.401   4.943   0.839 -0.5413 -0.0635  0.5933
 1250TFB     F220248   5.472   5.044   1.028  0.3306 -0.0992  0.5227
 1250TFB     F320249   5.463   4.822   1.020  0.2798  0.3827  0.2961
 1250TFB     F420250   5.612   4.942   0.896 -0.1942 -0.1785 -0.1699
 1251TFB      B20251   2.053   0.421   3.485 -0.1402  0.2579  1.1258
 1251TFB     F120252   2.147   0.386   3.586  0.4193  0.0506 -0.2838
 1251TFB     F220253   1.941   0.464   3.551  0.2249 -0.0295  0.1334
 1251TFB     F320254   2.103   0.529   3.415  0.2669  0.0114 -0.3547
 1251TFB     F420255   2.036   0.317   3.399  0.6548 -0.2405 -0.6484
 1252TFB      B20256   4.415   3.274   1.289 -0.0358 -0.5950  0.3638
 1252TFB     F120257   4.431   3.289   1.427 -0.1263 -0.3463 -0.5338
 1252TFB     F220258   4.424   3.145   1.247 -0.0010 -0.1285 -0.1544
 1252TFB     F320259   4.298   3.326   1.243 -0.7649 -0.4645  0.3800
 1252TFB     F420260   4.524   3.351   1.238 -0.1108 -0.5131 -0.2421
 1253TFB      B20261   5.218   2.967   5.319 -0.3313 -0.5030 -0.9595
 1253TFB     F120262   5.136   2.883   5.245 -0.1139  0.6863 -0.2477
 1253TFB     F220263   5.159   3.093   5.310  0.1111 -0.0064 -0.1182
 1253TFB     F320264   5.223   2.926   5.448 -0.8260  0.2638  0.2181
 1253TFB     F420265   5.350   2.968   5.272  0.3620  0.5247  0.0966
 1254TFB      B20266   3.467   5.399   0.423  0.9093 -0.1639  0.3566
 1254TFB     F120267   3.340   5.405   0.356 -0.6582 -0.1684  0.4981
 1254TFB     F220268   3.558   5.487   0.346  0.3302  0.2266  0.4650
 1254TFB     F320269   3.455   5.439   0.554 -0.6805  0.6711 -0.0432
 1254TFB     F420270   3.511   5.272   0.430 -0.4104 -0.0183  0.2546
 1255TFB      B20271   4.504   1.824   3.904  1.2182  0.1667 -0.1139
 1255TFB     F120272   4.635   1.847   3.852 -0.1630  0.4752  0.2469
 1255TFB     F220273   4.417   1.909   3.851 -0.9464 -0.2924 -0.3583
 1255TFB     F320274   4.466   1.702   3.862 -0.3246 -0.1206 -0.1778
 1255TFB     F420275   4.493   1.842   4.038  0.3369 -0.2716 -0.4548
 1256TFB      B20276   0.525   0.841   1.352  0.7642  0.6177  0.0517
 1256TFB     F120277   0.657   0.813   1.314 -0.1645 -0.5734 -0.1053
 1256TFB     F220278   0.524   0.897   1.480 -0.0883  0.1095 -0.0234
 1256TFB     F320279   0.471   0.931   1.262 -0.6850 -0.2641  0.9830
 1256TFB     F420280   0.446   0.728   1.360 -0.1046  0.4841 -0.5937
 1257TFB      B20281   0.684   3.321   1.569  0.3650 -0.2446 -0.6517
 1257TFB     F120282   0.730   3.265   1.452 -0.1386  0.2139 -0.1372
 1257TFB     F220283   0.689   3.218   1.666 -0.1711 -0.3703  0.4101
 1257TFB     F320284   0.759   3.425   1.611 -0.4671 -0.5710 -0.1437
 1257TFB     F420285   0.553   3.373   1.565  0.2041  0.4712  0.4682
 1258TFB      B20286   1.062   2.358   3.583 -0.5852 -1.2674 -0.1056
 1258TFB     F120287   1.112   2.312   3.460  0.1537  0.1198  1.0009
 1258TFB     F220288   0.926   2.363   3.593  0.5514 -0.0103 -0.2029
 1258TFB     F320289   1.128   2.292   3.682  0.3796 -0.0257  0.2605
 1258TFB     F420290   1.101   2.491   3.592  0.3714  0.0841 -0.5171
 1259TFB      B20291   3.980   0.457   5.330 -0.4129 -0.2202 -0.5853
 1259TFB     F120292   4.085   0.533   5.392 -0.0830  0.4684  0.0033
 1259TFB     F220293   3.885   0.442   5.427 -0.4107 -0.8097  0.2038
 1259TFB     F320294   3.930   0.523   5.215 -0.1031  0.4306  0.4855
 1259TFB     F420295   4.026   0.325   5.300  0.2354 -0.0344 -0.1059
 1260TFB      B20296   3.383   0.830   4.617 -0.3623  0.2976 -0.0301
 1260TFB     F120297   3.518   0.856   4.610  0.2144 -0.5034 -0.4929
 1260TFB     F220298   3.334   0.781   4.496  0.0343 -0.7485  0.2693
 1260TFB     F320299   3.344   0.726   4.712 -0.1065 -1.3142 -0.1529
 1260TFB     F420300   3.324   0.951   4.637 -0.1288  0.0759 -0.3498
 1261TFB      B20301   0.458   5.446   1.809 -0.2364 -0.5964 -0.7702
 1261TFB     F120302   0.465   5.484   1.944  0.0016  0.3347  0.3177
 1261TFB     F220303   0.328   5.476   1.775  0.3364 -0.7066 -0.1811
 1261TFB     F320304   0.557   5.522   1.751  0.0626 -0.1861  0.4831
 1261TFB     F420305   0.484   5.305   1.798 -0.0843  0.3100  0.6695
 1262TFB      B20306   2.937   3.008   5.385  0.5859  0.0096 -0.6286
 1262TFB     F120307   3.075   3.032   5.385  0.1552  0.5795 -0.1588
 1262TFB     F220308   2.898   2.995   5.248 -0.1927  0.3317 -0.2741
 1262TFB     F320309   2.904   2.891   5.457 -0.0164  0.2994  0.2318
 1262TFB     F420310   2.878   3.120   5.436 -0.1222 -0.3089  0.2526
 1263TFB      B20311   2.526   4.871   5.823  0.1113  0.8826  0.3571
 1263TFB     F120312   2.539   4.757   5.746  0.0748  0.1341 -0.0292
 1263TFB     F220313   2.445   4.963   5.759 -0.4029  0.1425  0.3479
 1263TFB     F320314   2.463   4.833   5.939  0.3421  0.3201  0.3984
 1263TFB     F420315   2.651   4.927   5.842  0.2940 -0.2717  0.1296
 1264TFB      B20316   4.895   3.861   0.512 -0.0369 -0.5268  0.0542
 1264TFB     F120317   4.963   3.887   0.636 -0.6330 -0.4304  0.3326
 1264TFB     F220318   4.831   3.741   0.540  0.4302 -0.1880  0.1196
 1264TFB     F320319   4.798   3.963   0.481 -0.1663  0.3471 -0.0275
 1264TFB     F420320   4.982   3.835   0.402  0.0748 -0.3388  0.2830
 1265TFB      B20321   3.877   5.766   0.941  0.0554 -0.3965  0.3700
 1265TFB     F120322   3.937   5.833   1.050  0.0790  0.0434 -0.0390
 1265TFB     F220323   3.956   5.753   0.830 -0.4808 -0.0985 -0.2608
 1265TFB     F320324   3.854   5.633   0.979 -0.0781 -0.0275 -0.2186
 1265TFB     F420325   3.756   5.842   0.920 -0.4957  0.1789 -0.0215
 1266TFB      B20326   2.990   4.732   5.434  0.9628 -0.0717 -0.4010
 1266TFB     F120327   3.060   4.614   5.417  0.2577  0.3044 -0.1325
 1266TFB     F220328   3.080   4.838   5.437  0.4775  0.2726  0.0251
 1266TFB     F320329   2.905   4.743   5.322 -0.2730  0.4669 -0.0655
 1266TFB     F420330   2.917   4.731   5.552  0.3577 -0.0214 -0.1608
 1267TFB      B20331   4.913   4.983   0.619  0.0916  0.2059  0.3544
 1267TFB     F120332   4.965   5.082   0.695  0.2633 -0.2363 -0.1194
 1267TFB     F220333   4.887   4.874   0.697 -0.6743 -0.5146  0.0846
 1267TFB     F320334   4.790   5.023   0.561  0.5118 -0.1946 -0.0909
 1267TFB     F420335   4.993   4.951   0.511  0.3766 -0.1970 -0.1448
 1268TFB      B20336   0.468   0.989   3.178 -0.2744  0.4845 -0.2367
 1268TFB     F120337   0.605   0.967   3.176 -0.2156  0.1783 -0.8144
 1268TFB     F220338   0.405   0.866   3.175 -0.6044  0.5610 -0.5253
 1268TFB     F320339   0.423   1.055   3.284 -0.4861 -0.0717 -0.3630
 1268TFB     F420340   0.423   1.058   3.068 -0.0163  0.5073  0.1557
 1269TFB      B20341   0.095   5.971   0.335  0.0195  0.1390  0.2210
 1269TFB     F120342   0.046   6.042   0.439  0.0788 -0.1128 -0.5639
 1269TFB     F220343   0.115   6.063   0.235  0.3762 -0.3918  0.0733
 1269TFB     F320344   0.218   5.922   0.378  0.4613  0.0713  0.2243
 1269TFB     F420345   0.011   5.859   0.309  0.2419  0.3278  0.3344
 1270TFB      B20346   5.011   2.342   5.765 -0.0249  0.1732  0.4949
 1270TFB     F120347   4.906   2.430   5.757 -0.0641 -0.0231 -0.0542
 1270TFB     F220348   5.001   2.259   5.654  0.1394 -0.3931 -0.1730
 1270TFB     F320349   5.137   2.409   5.768 -0.2604 -0.0832  0.3811
 1270TFB     F420350   4.999   2.261   5.878 -0.5561  0.0980 -0.1401
 1271TFB      B20351   5.216   5.510   0.085  0.1739  0.5924  0.2639
 1271TFB     F120352   5.089   5.511   0.028  0.2372  0.3293 -0.3162
 1271TFB     F220353   5.222   5.550   0.222 -0.3257  0.2267 -0.5689
 1271TFB     F320354   5.288   5.395   0.070  0.8305  0.3518 -0.0150
 1271TFB     F420355   5.293   5.611   0.024  0.4823  0.1822  0.3003
 1272TFB      B20356   1.301   4.716   0.217  0.2499 -0.0881  0.0839
 1272TFB     F120357   1.236   4.809   0.139 -0.0398 -0.0173 -0.4437
 1272TFB     F220358   1.246   4.592   0.191  0.3576 -0.7208  0.2567
 1272TFB     F320359   1.430   4.706   0.174  0.1632  0.6162  0.4882
 1272TFB     F420360   1.293   4.755   0.350  0.3340 -0.0530 -1.1109
 1273TFB      B20361   4.643   4.998   3.402  0.0070 -0.2522  0.3767
 1273TFB     F120362   4.742   4.918   3.446  0.4734  0.0914  0.2358
 1273TFB     F220363   4.638   4.979   3.264  0.0343 -0.5394 -0.2038
 1273TFB     F320364   4.521   4.964   3.459 -0.0573  0.0663 -0.0987
 1273TFB     F420365   4.687   5.128   3.429 -0.2663  0.4146  0.2374
 1274TFB      B20366   0.782   2.319   2.359  0.4479  0.1136  0.2693
 1274TFB     F120367   0.701   2.209   2.374 -0.0075  0.0619  0.0482
 1274TFB     F220368   0.811   2.366   2.483 -0.1188 -0.3299  0.3738
 1274TFB     F320369   0.896   2.295   2.280  0.2481 -0.2002 -0.0249
 1274TFB     F420370   0.708   2.416   2.298 -0.3383  0.3397 -0.2122
 1275TFB      B20371   2.856   0.388   4.250  0.6116 -0.3406 -0.5298
 1275TFB     F120372   2.901   0.370   4.379 -0.3279 -0.5553  0.7879
 1275TFB     F220373   2.724   0.436   4.259 -0.5195  0.1552 -0.0507
 1275TFB     F320374   2.938   0.488   4.188  0.5861 -0.3153 -0.1329
 1275TFB     F420375   2.863   0.272   4.177  0.1056  0.4064 -0.0579
 1276TFB      B20376   5.426   4.445   4.214  0.1820 -0.0481 -0.6524
 1276TFB     F120377   5.454   4.424   4.080  0.3796  0.2476 -0.3838
 1276TFB     F220378   5.285   4.476   4.229  0.0879  0.3837 -0.1767
 1276TFB     F320379   5.449   4.331   4.287 -0.6237 -0.2433  0.2287
 1276TFB     F420380   5.511   4.551   4.238 -0.2341 -0.0889  0.5023
 1277TFB      B20381   0.383   2.438   5.814 -0.3775  0.1004  1.3583
 1277TFB     F120382   0.378   2.384   5.685  0.0727 -0.8642  0.4370
 1277TFB     F220383   0.479   2.541   5.818  0.4574 -0.3756 -0.1377
 1277TFB     F320384   0.252   2.479   5.828  0.2041 -0.4663  0.1633
 1277TFB     F420385   0.399   2.325   5.905 -0.2397  0.5352  0.6592
 1278TFB      B20386   0.873   4.992   1.631  0.5165 -0.0330  0.2689
 1278TFB     F120387   0.824   4.931   1.748  0.0060  0.0303  0.1081
 1278TFB     F220388   0.907   4.899   1.536  0.3983 -0.5446 -0.2246
 1278TFB     F320389   0.770   5.076   1.584  0.3468  0.2492  0.1865
 1278TFB     F420390   0.986   5.070   1.649  0.0897 -0.2740  0.2660
 1279TFB      B20391   6.319   4.350   4.553 -0.0154  0.4236  0.7123
 1279TFB     F120392   6.310   4.253   4.462 -0.5463 -0.0902  0.2279
 1279TFB     F220393   6.420   4.324   4.641  0.0945  0.2828  0.3574
 1279TFB     F320394   6.325   4.468   4.482 -0.0279  0.0722  0.1916
 1279TFB     F420395   6.199   4.339   4.620  0.1391 -0.6836 -0.3997
 1280TFB      B20396   6.052   5.938   2.617 -0.3329 -0.0650  0.3992
 1280TFB     F120397   5.933   5.868   2.646  0.1076 -0.8712  0.0651
 1280TFB     F220398   6.023   6.002   2.500 -0.6144 -0.3239 -0.5335
 1280TFB     F320399   6.088   6.026   2.713  0.3942 -0.3471  0.4363
 1280TFB     F420400   6.151   5.856   2.594 -0.6158  0.8761  0.3837
 1281TFB      B20401   4.296   4.450   1.388  1.0641 -0.3831  0.0149
 1281TFB     F120402   4.219   4.420   1.275  0.6228 -0.4460  0.1222
 1281TFB     F220403   4.239   4.400   1.506 -0.0099  0.3732 -0.1990
 1281TFB     F320404   4.425   4.404   1.371 -0.0343 -0.1622  0.1170
 1281TFB     F420405   4.305   4.590   1.394  0.2816 -0.0646 -0.4573
 1282TFB      B20406   3.536   2.235   2.422 -0.8991  0.2539  0.5278
 1282TFB     F120407   3.521   2.123   2.507  0.2291 -0.1498  0.0530
 1282TFB     F220408   3.621   2.201   2.310  0.2748  0.2763 -0.2463
 1282TFB     F320409   3.415   2.277   2.371  0.3090 -0.4100 -0.3158
 1282TFB     F420410   3.598   2.335   2.484 -0.2701 -0.8521 -0.7813
 1283TFB      B20411   5.806   6.296   5.420  0.4664  0.4381 -0.2526
 1283TFB     F120412   5.743   6.242   5.532 -0.4560  0.0997 -0.0628
 1283TFB     F220413   5.730   6.409   5.376  0.0342 -0.0325 -0.4516
 1283TFB     F320414   5.924   6.356   5.453 -0.7579 -0.0378 -0.4119
 1283TFB     F420415   5.818   6.215   5.310 -0.2694  0.1582 -0.4079
 1284TFB      B20416   0.439   5.122   3.662  0.4628 -0.3703  0.0155
 1284TFB     F120417   0.449   5.193   3.783  0.0315  0.1292 -0.3344
 1284TFB     F220418   0.311   5.143   3.609 -0.1628 -0.6036  0.1408
 1284TFB     F320419   0.530   5.152   3.564 -0.3466 -0.1957  0.2190
 1284TFB     F420420   0.462   4.987   3.690 -0.9636  0.2330 -0.6961
 1285TFB      B20421   5.015   2.449   0.775  0.0658  0.0515  0.4362
 1285TFB     F120422   5.020   2.576   0.707  0.0312  0.5965  0.2891
 1285TFB     F220423   4.973   2.467   0.905 -0.4015 -0.0067 -0.3428
 1285TFB     F320424   4.933   2.363   0.708  0.2464 -0.1494 -0.3154
 1285TFB     F420425   5.138   2.389   0.780 -0.5436 -0.2957  0.1845
 1286TFB      B20426   5.172   4.680   1.529 -0.4834 -0.0057  0.1069
 1286TFB     F120427   5.303   4.678   1.577  0.1577 -0.0922 -0.2340
 1286TFB     F220428   5.172   4.689   1.385  0.1456 -0.2362  0.4346
 1286TFB     F320429   5.099   4.562   1.560  0.1024 -0.2588  0.0165
 1286TFB     F420430   5.096   4.794   1.576 -0.0491 -0.8079  0.0682
 1287TFB      B20431   2.617   4.228   3.942 -0.2187 -0.0683 -0.3952
 1287TFB     F120432   2.572   4.107   3.984  0.0425  0.0919 -0.3783
 1287TFB     F220433   2.730   4.246   4.016  0.5045  0.0296  0.4595
 1287TFB     F320434   2.641   4.207   3.807 -0.0862  0.6733  0.2774
 1287TFB     F420435   2.527   4.328   3.965  0.5251  0.4851 -0.8150
 1288TFB      B20436   0.491   4.485   1.171  1.0639 -0.7467  0.4426
 1288TFB     F120437   0.487   4.561   1.282  0.1859 -0.2291 -0.5510
 1288TFB     F220438   0.372   4.412   1.162 -0.0925  0.1536 -0.3622
 1288TFB     F320439   0.501   4.565   1.059 -0.0407 -0.1900  0.6387
 1288TFB     F420440   0.607   4.404   1.179 -0.1246  0.2101 -0.3671
 1289TFB      B20441   6.253   3.342   1.554  0.6862  0.7113 -0.3865
 1289TFB     F120442   6.324   3.222   1.549 -0.2444 -0.9144 -0.3273
 1289TFB     F220443   6.126   3.326   1.513 -0.0309  0.2766 -0.3678
 1289TFB     F320444   6.253   3.386   1.691 -0.2335  0.4978  0.4249
 1289TFB     F420445   6.318   3.446   1.487  0.4131 -0.5213  0.1738
 1290TFB      B20446   2.385   0.028   5.033  0.3145 -0.4351 -0.5285
 1290TFB     F120447   2.491   0.084   4.980 -0.8021  0.1764 -0.2290
 1290TFB     F220448   2.425  -0.017   5.157 -0.0108  0.1552 -0.0458
 1290TFB     F320449   2.284   0.123   5.048 -0.4161 -0.6263 -0.1364
 1290TFB     F420450   2.349  -0.078   4.946  0.5710 -0.0544 -0.1273
 1291TFB      B20451   1.704   5.207   2.203 -0.3452  0.1302  0.0069
 1291TFB     F120452   1.817   5.255   2.149  0.1424  0.2255  0.2820
 1291TFB     F220453   1.687   5.248   2.334 -0.1457 -0.2129  0.0363
 1291TFB     F320454   1.603   5.270   2.140  0.1915 -0.0428  0.4223
 1291TFB     F420455   1.708   5.073   2.197 -0.3630  0.0362 -0.1235
 1292TFB      B20456   1.074   0.753   4.375  0.0358  0.1533 -0.3935
 1292TFB     F120457   1.056   0.659   4.480 -0.1100  0.2523 -0.8929
 1292TFB     F220458   0.958   0.806   4.340  0.3440 -0.8496  0.3295
 1292TFB     F320459   1.162   0.856   4.394 -0.2587  0.2846 -0.3506
 1292TFB     F420460   1.125   0.694   4.262 -0.5556 -0.2450 -0.1977
 1293TFB      B20461   4.779   3.057   4.778  0.2894  0.3507 -0.0198
 1293TFB     F120462   4.838   3.034   4.656  0.5375  0.1543  0.5626
 1293TFB     F220463   4.756   3.191   4.804 -0.4225 -0.2308  0.2363
 1293TFB     F320464   4.656   2.995   4.770 -0.0193  0.5690  0.3721
 1293TFB     F420465   4.858   3.008   4.875  0.6595 -0.0111  0.0251
 1294TFB      B20466   0.675   4.466   5.187 -0.4398  0.2552 -0.8627
 1294TFB     F120467   0.628   4.440   5.321  0.3773  0.6626 -0.4050
 1294TFB     F220468   0.781   4.380   5.143  0.3443  0.2737 -0.4441
 1294TFB     F320469   0.560   4.462   5.107  0.3084  0.0031  0.0776
 1294TFB     F420470   0.719   4.599   5.187 -0.0251  0.1454  0.1951
 1295TFB      B20471   4.549   1.123   0.043 -0.6593 -0.4935  0.9681
 1295TFB     F120472   4.649   1.172   0.131 -0.6859 -0.2617 -0.2324
 1295TFB     F220473   4.543   0.982   0.051  0.5435  0.2472 -0.1287
 1295TFB     F320474   4.420   1.171   0.071 -0.2122 -0.0322 -0.0310
 1295TFB     F420475   4.590   1.156  -0.085  0.1803 -0.4493 -0.1113
 1296TFB      B20476   0.497   0.346   0.833  0.3738  0.2307 -0.2256
 1296TFB     F120477   0.455   0.217   0.811  0.5254  0.5008 -0.6148
 1296TFB     F220478   0.617   0.349   0.787 -0.1532 -0.0892  0.2838
 1296TFB     F320479   0.419   0.437   0.759 -0.0119 -0.3571 -0.0657
 1296TFB     F420480   0.501   0.380   0.967  0.0900  0.2288  0.2400
 1297TFB      B20481   5.654   0.866   2.845  0.3530  0.7206 -0.0689
 1297TFB     F120482   5.593   0.769   2.757 -0.0001  0.2119  0.3423
 1297TFB     F220483   5.701   0.957   2.748  0.0186  0.3872 -0.2620
 1297TFB     F320484   5.556   0.919   2.933 -0.1021 -0.0670  0.0860
 1297TFB     F420485   5.757   0.826   2.925  0.3499  0.0116  0.0227
 1298TFB      B20486   4.629   4.556   6.023 -0.3274 -0.2836 -0.4538
 1298TFB     F120487   4.522   4.468   5.998  0.0952  0.3220  0.2264
 1298TFB     F220488   4.749   4.486   6.015 -0.1098  0.3015  0.1405
 1298TFB     F320489   4.628   4.660   5.935 -0.1017 -0.2968  0.2154
 1298TFB     F420490   4.616   4.605   6.158 -0.3146 -0.2697  0.5410
 1299TFB      B20491   0.078   2.780   0.712  0.0016  0.3777 -0.2892
 1299TFB     F120492   0.030   2.893   0.649 -0.3870  0.1889 -0.4740
 1299TFB     F220493  -0.018   2.686   0.679  0.0125  0.1801 -0.1270
 1299TFB     F320494   0.210   2.748   0.676 -0.2420  0.7717  0.7263
 1299TFB     F420495   0.071   2.801   0.856 -0.9545 -0.3586  0.1370
 1300TFB      B20496   1.243   0.893   5.974  0.1406 -0.5608 -0.2777
 1300TFB     F120497   1.157   0.977   5.898  0.2802 -0.2045 -0.1479
 1300TFB     F220498   1.189   0.769   6.000  0.2217 -0.5220  0.3099
 1300TFB     F320499   1.362   0.867   5.902  0.7824  0.3841 -0.1116
 1300TFB     F420500   1.273   0.955   6.095  0.0903 -0.3650  0.5677
 1301TFB      B20501   2.671   5.097   3.583 -0.6879 -0.3720 -0.3060
 1301TFB     F120502   2.745   5.178   3.664  0.0969 -0.2535  0.0064
 1301TFB     F220503   2.711   5.108   3.449  0.8029 -0.0323 -0.1756
 1301TFB     F320504   2.683   4.970   3.641  0.2475  0.0681  0.2725
 1301TFB     F420505   2.533   5.128   3.582 -0.0549 -0.3245 -0.2323
 1302TFB      B20506   0.728   1.022   4.751 -0.5194 -0.4108 -0.0198
 1302TFB     F120507   0.747   0.906   4.820  0.0597  0.1606  0.5043
 1302TFB     F220508   0.596   1.024   4.704  0.2025  0.1367  0.6482
 1302TFB     F320509   0.736   1.132   4.839  0.0340 -0.2073  0.4699
 1302TFB     F420510   0.825   1.041   4.652 -0.0985  0.3389  0.5877
 1303TFB      B20511   1.456   3.171   1.440 -0.4695  0.1174  0.0064
 1303TFB     F120512   1.320   3.172   1.433  0.3310 -0.0531  0.3480
 1303TFB     F220513   1.493   3.290   1.492 -0.0295  0.4558 -0.4965
 1303TFB     F320514   1.501   3.067   1.523 -0.4034 -0.1615  0.0295
 1303TFB     F420515   1.514   3.151   1.318  0.2368  0.5235  0.0361
 1304TFB      B20516   4.639   6.064   0.884  0.1255  0.0747 -0.2173
 1304TFB     F120517   4.584   6.015   1.007  0.1320  0.6877  0.0924
 1304TFB     F220518   4.638   5.961   0.797  0.3823  0.0596  0.0874
 1304TFB     F320519   4.560   6.166   0.847 -0.3170 -0.5515 -0.1569
 1304TFB     F420520   4.764   6.114   0.920  0.9942 -0.4634 -0.0387
 1305TFB      B20521   0.245   5.921   1.206  0.0404  0.1038 -0.3672
 1305TFB     F120522   0.341   5.927   1.307  0.4333  0.3978  0.7014
 1305TFB     F220523   0.216   6.051   1.160  0.1291  0.1880 -0.8668
 1305TFB     F320524   0.279   5.831   1.107  0.0429  0.3732 -0.0184
 1305TFB     F420525   0.135   5.877   1.274  0.1235  0.1435  0.0815
 1306TFB      B20526   3.841   0.900   3.691  0.2983 -0.1270  0.3377
 1306TFB     F120527   3.825   0.932   3.558  0.8330 -0.2762 -0.3977
 1306TFB     F220528   3.886   1.023   3.741  0.1120  0.7378  0.1393
 1306TFB     F320529   3.719   0.877   3.750 -0.0394 -0.0513  0.6048
 1306TFB     F420530   3.935   0.795   3.700  0.2466  0.0571 -0.1131
 1307TFB      B20531   5.080   3.216   3.333 -0.0237  0.3494  0.2787
 1307TFB     F120532   5.222   3.199   3.330 -0.1195 -0.2547  0.1894
 1307TFB     F220533   5.015   3.104   3.285 -0.9465 -0.2568  0.4914
 1307TFB     F320534   5.034   3.238   3.467  0.1826  0.2195 -0.3027
 1307TFB     F420535   5.045   3.324   3.247 -0.3309  0.7122 -0.5609
 1308TFB      B20536   1.937   4.472   1.959 -0.5087  0.1643  0.6591
 1308TFB     F120537   2.053   4.551   1.965  0.5312 -0.3724  0.2679
 1308TFB     F220538   1.928   4.419   1.827  0.3388  0.0029 -0.1589
 1308TFB     F320539   1.927   4.373   2.066 -0.7793 -0.0598  0.3144
 1308TFB     F420540   1.824   4.548   1.963 -0.8903  0.0860 -0.3303
 1309TFB      B20541   0.468   4.333   6.324  0.3315  0.1595  0.0151
 1309TFB     F120542   0.437   4.257   6.441 -0.3184 -0.2624 -0.1787
 1309TFB     F220543   0.546   4.447   6.343  0.0330 -0.0495  0.1031
 1309TFB     F320544   0.520   4.240   6.235 -0.0941 -0.2282  0.2669
 1309TFB     F420545   0.347   4.371   6.280  0.1422 -0.2375 -0.1656
 1310TFB      B20546   2.976   2.931   0.066  0.1691  0.4200  0.0323
 1310TFB     F120547   3.038   2.808   0.039 -0.4687  0.1467  0.4992
 1310TFB     F220548   2.934   2.973  -0.059  0.0739  0.2451 -0.4598
 1310TFB     F320549   2.878   2.931   0.163  0.3072  0.7861  0.9531
 1310TFB     F420550   3.070   3.021   0.100 -0.0643 -0.1279  0.0833
 1311TFB      B20551   5.716   4.811   6.125  0.5174 -0.0210  0.0155
 1311TFB     F120552   5.682   4.755   6.243 -0.0068 -0.0319  0.0364
 1311TFB     F220553   5.613   4.750   6.051 -0.2146  0.0395  0.5500
 1311TFB     F320554   5.694   4.950   6.124 -0.5733 -0.0852 -0.2717
 1311TFB     F420555   5.837   4.780   6.067 -0.2279  0.1205  0.0130
 1312TFB      B20556   2.045   6.020   2.972 -0.3111 -0.4045  0.2140
 1312TFB     F120557   2.018   6.083   3.092 -0.2775  0.1698  0.2527
 1312TFB     F220558   2.147   5.934   3.003 -0.3981  0.1230 -0.4839
 1312TFB     F320559   1.935   5.938   2.935  0.3056 -0.1666 -0.5801
 1312TFB     F420560   2.092   6.107   2.869 -0.1530  0.5707 -0.5575
 1313TFB      B20561   3.121   3.191   1.439  0.1788  0.1138 -1.3355
 1313TFB     F120562   3.053   3.258   1.543 -0.2616  0.2328 -0.1193
 1313TFB     F220563   3.026   3.178   1.338 -0.2608  0.2322  0.4923
 1313TFB     F320564   3.241   3.251   1.406  0.1186 -0.0228  0.0658
 1313TFB     F420565   3.164   3.069   1.476  0.0298  0.0381 -0.5259
 1314TFB      B20566   2.199   2.218   0.892  0.5657  0.2535 -0.3753
 1314TFB     F120567   2.073   2.225   0.946  0.3809 -0.0261  0.0616
 1314TFB     F220568   2.272   2.313   0.947  0.4420 -0.1995  0.0419
 1314TFB     F320569   2.261   2.103   0.933  0.0421  0.2689 -0.2079
 1314TFB     F420570   2.201   2.223   0.749 -0.2374  0.0575 -0.0243
 1315TFB      B20571   5.019   4.985   0.018  0.4571  0.6134  0.5643
 1315TFB     F120572   5.039   5.046   0.141 -0.2289  0.0500  0.0814
 1315TFB     F220573   5.137   4.947  -0.040  0.0729 -0.0249  0.3063
 1315TFB     F320574   4.937   4.874   0.033  0.6046  0.2425  0.8539
 1315TFB     F420575   4.955   5.072  -0.068  0.1223 -0.1757 -0.5645
 1316TFB      B20576   1.603   1.176   4.494 -0.0339 -0.5047  0.1521
 1316TFB     F120577   1.572   1.294   4.566 -0.4704 -0.0729 -0.0655
 1316TFB     F220578   1.621   1.197   4.358 -0.4495  0.5040 -0.4275
 1316TFB     F320579   1.721   1.116   4.543  0.0858  0.2763  0.1036
 1316TFB     F420580   1.496   1.084   4.525 -0.3059  0.2294 -0.3008
 1317TFB      B20581   5.414   1.094   5.149 -0.7996  0.2109 -0.2730
 1317TFB     F120582   5.361   0.961   5.150 -0.0676  0.3532  0.5955
 1317TFB     F220583   5.467   1.120   5.279  0.1978 -0.4735  0.2025
 1317TFB     F320584   5.515   1.112   5.055 -0.1259  0.1021  0.0062
 1317TFB     F420585   5.303   1.167   5.117  0.4014 -0.2395  0.1004
 1318TFB      B20586   2.285   1.007   0.382 -0.3982  0.6552 -0.6404
 1318TFB     F120587   2.258   0.893   0.303  0.8517 -0.0793  0.1514
 1318TFB     F220588   2.341   1.107   0.295  0.2337  0.0636  0.1132
 1318TFB     F320589   2.179   1.064   0.445  0.0469 -0.1549 -0.0534
 1318TFB     F420590   2.386   0.979   0.470  0.2405 -0.1148  0.1818
 1319TFB      B20591   6.081   4.088   1.586 -0.1246  0.1032 -0.2460
 1319TFB     F120592   6.091   4.064   1.721 -0.1722 -0.0370 -0.0336
 1319TFB     F220593   5.952   4.070   1.541  0.3318  0.5084  0.1551
 1319TFB     F320594   6.119   4.219   1.563 -1.0622  0.1814 -0.2602
 1319TFB     F420595   6.159   4.001   1.517  0.0403 -0.2842 -0.2874
 1320TFB      B20596   4.524   0.715   6.067  0.6263 -0.0419  0.0701
 1320TFB     F120597   4.495   0.610   6.148 -0.0142  0.0369 -0.1813
 1320TFB     F220598   4.557   0.671   5.943  0.2461 -0.5517  1.0052
 1320TFB     F320599   4.407   0.789   6.060 -0.0271 -0.0105  0.1095
 1320TFB     F420600   4.642   0.770   6.116  0.2271 -0.0090 -0.0443
 1321TFB      B20601   3.456   3.501   3.028 -1.4561  0.6615  0.4235
 1321TFB     F120602   3.446   3.623   2.946 -0.2665  0.0929 -0.2181
 1321TFB     F220603   3.459   3.523   3.162  0.2163 -0.4622 -0.1547
 1321TFB     F320604   3.334   3.438   3.005 -0.2045 -0.1562  0.0218
 1321TFB     F420605   3.574   3.435   2.999 -0.4192 -0.2357 -0.2214
 1322TFB      B20606   2.297   1.204   2.493  0.0685  0.0444  0.0321
 1322TFB     F120607   2.355   1.118   2.583  0.1954  0.0259  0.4011
 1322TFB     F220608   2.398   1.271   2.423  0.2715  0.0135 -0.5362
 1322TFB     F320609   2.215   1.142   2.404 -0.2795  0.1534  0.5928
 1322TFB     F420610   2.222   1.303   2.552 -0.5220 -0.0009  0.3637
 1323TFB      B20611   1.297   3.312   5.465 -0.5145  0.2344 -0.4540
 1323TFB     F120612   1.227   3.263   5.357 -0.4188  0.0877  0.4678
 1323TFB     F220613   1.398   3.387   5.422 -0.1841  0.3319  0.2998
 1323TFB     F320614   1.202   3.385   5.532  0.2425 -0.1360 -0.0658
 1323TFB     F420615   1.341   3.206   5.545 -0.2207 -0.1727 -0.5380
 1324TFB      B20616   3.240   3.827   0.077 -0.6291  0.4402  0.2297
 1324TFB     F120617   3.351   3.897   0.118  0.0706 -0.2096 -0.4376
 1324TFB     F220618   3.235   3.710   0.148  0.1755  0.4952  0.2747
 1324TFB     F320619   3.126   3.900   0.097 -0.4047  0.3640 -0.7484
 1324TFB     F420620   3.253   3.806  -0.062 -0.7737  0.0875  0.0712
 1325TFB      B20621   1.359   4.801   2.414 -0.6350  0.0703  0.0147
 1325TFB     F120622   1.463   4.904   2.426  0.1008  0.0252  0.0190
 1325TFB     F220623   1.260   4.845   2.510  0.3089  0.2607 -0.4323
 1325TFB     F320624   1.309   4.796   2.287 -0.2227 -0.0922  0.1176
 1325TFB     F420625   1.412   4.677   2.445  0.5218 -0.6360  0.0557
 1326TFB      B20626   6.200   1.614   1.751 -0.1333  0.1424  0.5912
 1326TFB     F120627   6.133   1.523   1.826 -0.4812  0.0889 -0.2412
 1326TFB     F220628   6.210   1.729   1.831 -0.0365 -0.0137  0.5930
 1326TFB     F320629   6.311   1.557   1.692  0.1090 -0.0492  0.3461
 1326TFB     F420630   6.118   1.640   1.646  0.4903  0.2988  0.3286
 1327TFB      B20631   3.305   2.011   6.212 -0.3651 -0.0442 -0.6340
 1327TFB     F120632   3.178   1.961   6.189 -0.0612 -0.2062 -0.2939
 1327TFB     F220633   3.341   2.091   6.112  0.2753  0.3193 -0.6706
 1327TFB     F320634   3.321   2.072   6.337  0.3978 -0.0018  0.4205
 1327TFB     F420635   3.402   1.906   6.211  0.2605  0.2160  0.1480
 1328TFB      B20636   3.203   5.891   3.069  0.5454  0.1729 -0.1389
 1328TFB     F120637   3.294   5.798   3.035 -0.7515 -0.5759  0.2615
 1328TFB     F220638   3.237   6.011   3.012 -0.2321  0.0715  0.0893
 1328TFB     F320639   3.083   5.842   3.009  0.5984  0.1455 -0.2550
 1328TFB     F420640   3.197   5.913   3.211  0.4272  0.4483  0.2944
 1329TFB      B20641   3.122   3.585   5.539 -0.2781  0.0955  0.0812
 1329TFB     F120642   3.132   3.719   5.576 -0.0742  0.2210 -0.1942
 1329TFB     F220643   3.007   3.565   5.465  0.2339  0.0708 -0.2520
 1329TFB     F320644   3.232   3.556   5.459 -0.4674 -0.3946  0.0572
 1329TFB     F420645   3.125   3.502   5.652  0.1162 -0.0339 -0.4809
 1330TFB      B20646   6.185   3.979   0.185 -0.3979 -0.3896  0.6389
 1330TFB     F120647   6.141   3.882   0.096  0.1022  0.2598 -0.0251
 1330TFB     F220648   6.325   3.971   0.197 -0.1257  0.3387  0.0704
 1330TFB     F320649   6.167   4.105   0.131 -0.1298 -0.3164 -0.0409
 1330TFB     F420650   6.120   3.983   0.306  0.0488  0.1348 -0.1881
 1331TFB      B20651   3.332   2.552   0.041  0.9310  0.3019  0.2202
 1331TFB     F120652   3.283   2.436  -0.027  0.0059 -1.0519 -0.1275
 1331TFB     F220653   3.219   2.603   0.096 -0.3455  0.0228  0.0697
 1331TFB     F320654   3.437   2.514   0.131  0.5430  0.2594 -0.3229
 1331TFB     F420655   3.384   2.637  -0.061  0.1854 -0.0860 -0.1986
 1332TFB      B20656   0.813   1.351   0.075 -0.6255 -0.9854  0.7741
 1332TFB     F120657   0.750   1.383  -0.044 -0.1531  0.2985  0.2763
 1332TFB     F220658   0.926   1.292   0.038  0.2601  0.0692  0.1783
 1332TFB     F320659   0.828   1.472   0.144 -0.4465 -0.5689 -0.2656
 1332TFB     F420660   0.735   1.263   0.155 -0.7657  0.1353 -0.8016
 1333TFB      B20661   5.458   4.786   3.161  0.4075 -0.6627 -0.5089
 1333TFB     F120662   5.420   4.923   3.156  0.0999  0.0675  0.1367
 1333TFB     F220663   5.594   4.767   3.189 -0.1541  0.0775  0.3738
 1333TFB     F320664   5.383   4.724   3.268 -0.0183 -0.5261  0.3739
 1333TFB     F420665   5.418   4.733   3.044 -0.4928  0.5379 -0.0498
 1334TFB      B20666   2.278   4.527   1.223 -0.2034 -0.0792  0.0858
 1334TFB     F120667   2.350   4.448   1.328  0.7765 -0.4737  0.2537
 1334TFB     F220668   2.169   4.588   1.281  0.5301 -0.0659 -0.2033
 1334TFB     F320669   2.370   4.625   1.181  0.1293  0.0989 -0.4255
 1334TFB     F420670   2.240   4.443   1.119 -0.1850  0.1160  0.1176
 1335TFB      B20671   3.579   0.758   0.621  0.2845 -0.2429 -0.2049
 1335TFB     F120672   3.614   0.637   0.562 -0.2057 -0.2089 -0.2665
 1335TFB     F220673   3.488   0.733   0.726 -0.4938 -0.0158 -0.4563
 1335TFB     F320674   3.689   0.839   0.669  0.0157 -0.5520  0.1132
 1335TFB     F420675   3.507   0.827   0.530 -0.1342  0.4659 -0.4709
 1336TFB      B20676   6.248   4.391   0.918  0.4952  0.0376  0.8178
 1336TFB     F120677   6.337   4.365   0.817  0.8100  0.2307 -0.5197
 1336TFB     F220678   6.149   4.292   0.912 -0.0671  0.2030 -0.1960
 1336TFB     F320679   6.327   4.379   1.036  0.0817 -0.1114  0.7449
 1336TFB     F420680   6.185   4.511   0.915 -0.1817 -0.8849  0.1462
 1337TFB      B20681   1.530   5.305   2.880  0.2304  0.8074  0.5188
 1337TFB     F120682   1.435   5.237   2.811 -0.3245  0.1226 -0.1445
 1337TFB     F220683   1.560   5.425   2.820 -0.5042  0.2646  0.3743
 1337TFB     F320684   1.478   5.331   3.010  0.0135  0.4405 -0.0832
 1337TFB     F420685   1.647   5.228   2.882 -0.2801  0.7532  0.0443
 1338TFB      B20686   5.835   1.755   1.228 -0.2477 -0.5249  0.0293
 1338TFB     F120687   5.884   1.650   1.155 -0.0371 -0.4657 -0.2954
 1338TFB     F220688   5.882   1.742   1.358  0.5701 -0.4437 -0.0878
 1338TFB     F320689   5.887   1.876   1.179  0.4469  0.5493  0.5110
 1338TFB     F420690   5.695   1.746   1.230 -0.2809 -0.3219 -0.2720
 1339TFB      B20691   3.793   2.201   0.408  0.2070 -0.2816  0.6621
 1339TFB     F120692   3.847   2.176   0.274  0.6545 -0.3260 -0.4549
 1339TFB     F220693   3.890   2.244   0.499 -0.1475 -0.0086  0.4776
 1339TFB     F320694   3.707   2.312   0.391 -0.0034  0.0188  0.0160
 1339TFB     F420695   3.724   2.090   0.451  0.6776 -0.8420 -0.0343
 1340TFB      B20696   2.442   5.965   1.236  0.2924 -0.0924  0.6953
 1340TFB     F120697   2.393   6.070   1.313 -0.7904  0.1417  0.0655
 1340TFB     F220698   2.511   5.880   1.320  0.5310  0.4713 -0.1446
 1340TFB     F320699   2.325   5.897   1.192 -0.3028 -0.2688  0.0082
 1340TFB     F420700   2.523   6.003   1.130  0.4769  0.1257 -0.2076
 1341TFB      B20701   2.277   3.870   1.104  0.0817 -0.0454  0.0909
 1341TFB     F120702   2.406   3.921   1.121  0.6274 -0.2033 -0.0375
 1341TFB     F220703   2.288   3.733   1.134 -0.4737 -0.0942 -0.2101
 1341TFB     F320704   2.187   3.958   1.180  0.5067  0.3487  0.2060
 1341TFB     F420705   2.248   3.876   0.968  0.2094 -0.0024  0.3639
 1342TFB      B20706   2.556   3.638   1.799  0.2215  0.1569 -0.4669
 1342TFB     F120707   2.661   3.702   1.858 -0.2566  0.2826 -0.0873
 1342TFB     F220708   2.441   3.716   1.807  0.1019  0.0344  0.0620
 1342TFB     F320709   2.583   3.616   1.669  0.3509 -0.0208 -0.8067
 1342TFB     F420710   2.534   3.512   1.863 -0.0199  0.0754  0.2682
 1343TFB      B20711   1.287   3.606   2.449  0.0686  0.4109  0.3071
 1343TFB     F120712   1.340   3.666   2.333 -0.5715  0.0047 -0.0095
 1343TFB     F220713   1.353   3.484   2.461  0.4785  0.0159 -0.4336
 1343TFB     F320714   1.323   3.692   2.549 -0.1045 -0.0394  0.0814
 1343TFB     F420715   1.149   3.595   2.442  0.2067 -0.4445 -0.3512
 1344TFB      B20716   2.123   5.909   5.237  1.0066  0.0665 -0.8519
 1344TFB     F120717   2.171   5.785   5.270  0.8121  0.5894  0.7687
 1344TFB     F220718   2.207   5.965   5.139  0.2088 -0.1938 -0.5022
 1344TFB     F320719   2.001   5.900   5.185  0.6342  0.5018 -0.1809
 1344TFB     F420720   2.144   5.988   5.352 -0.5582 -0.0866 -0.1687
 1345TFB      B20721   6.110   3.152   4.269 -0.1499  0.3936 -0.3467
 1345TFB     F120722   6.069   3.282   4.287  0.0988  0.0784 -0.0780
 1345TFB     F220723   5.995   3.076   4.255  0.2244  0.4039 -0.1265
 1345TFB     F320724   6.177   3.147   4.150 -0.0852  0.2023 -0.2086
 1345TFB     F420725   6.184   3.101   4.380 -0.2022  0.1529  0.0262
 1346TFB      B20726   3.965   2.792   2.881  0.0264  0.7877 -0.0327
 1346TFB     F120727   3.832   2.830   2.856 -0.0008  0.4408 -0.1434
 1346TFB     F220728   4.017   2.704   2.791 -0.0796  0.0063  0.8354
 1346TFB     F320729   4.055   2.890   2.889  0.0661 -0.0784 -0.3523
 1346TFB     F420730   3.967   2.721   3.000 -0.0176  0.3581 -0.2241
 1347TFB      B20731   3.552   3.217   3.629  0.8902 -0.6730 -0.4262
 1347TFB     F120732   3.640   3.332   3.641  0.3184  0.0260 -0.6632
 1347TFB     F220733   3.626   3.101   3.624 -0.0217  0.1114  0.0363
 1347TFB     F320734   3.465   3.206   3.732 -0.1552  0.8226 -0.1227
 1347TFB     F420735   3.478   3.238   3.516  0.2079 -0.3069  0.3044
 1348TFB      B20736   1.060   3.307   6.082  0.1842  0.0351  0.5669
 1348TFB     F120737   0.960   3.213   6.116 -0.1797  0.2888 -0.2005
 1348TFB     F220738   1.016   3.434   6.127  0.1277  0.0076 -0.2449
 1348TFB     F320739   1.181   3.282   6.137  0.1001  0.0079  0.3483
 1348TFB     F420740   1.067   3.319   5.941  0.1811  0.2151  0.3247
 1349TFB      B20741   5.158   1.567   3.705 -0.2094  0.1031  0.5701
 1349TFB     F120742   5.210   1.456   3.645 -0.0398 -0.4485  0.1268
 1349TFB     F220743   5.050   1.621   3.639  0.2703 -0.3134  0.1056
 1349TFB     F320744   5.128   1.537   3.835  0.3714 -0.0540  0.0741
 1349TFB     F420745   5.257   1.660   3.711  0.0139 -0.4747  0.2540
 1350TFB      B20746   0.785   5.891   3.867  0.0326  0.2434 -0.5397
 1350TFB     F120747   0.792   5.757   3.892  0.5896 -0.1009 -0.2080
 1350TFB     F220748   0.679   5.941   3.940 -0.2166 -0.2483  0.1896
 1350TFB     F320749   0.902   5.954   3.883  0.1158  0.1811 -0.4053
 1350TFB     F420750   0.762   5.904   3.732 -0.5511  0.1040  0.3320
 1351TFB      B20751   3.729   0.377   4.239  0.9712 -0.4551 -0.7822
 1351TFB     F120752   3.770   0.504   4.288  0.3449 -0.7791 -0.0223
 1351TFB     F220753   3.833   0.345   4.152  0.2159 -0.2393  0.0482
 1351TFB     F320754   3.718   0.274   4.339  0.0205 -0.0057 -0.7123
 1351TFB     F420755   3.602   0.386   4.174  0.0149 -0.4602 -0.2706
 1352TFB      B20756   6.004   4.690   3.943 -1.4285  0.2171  0.2968
 1352TFB     F120757   5.911   4.725   4.036  0.0185 -0.6510 -0.1799
 1352TFB     F220758   5.954   4.584   3.871  0.3841  0.1641  0.1909
 1352TFB     F320759   6.036   4.806   3.873 -0.5042 -0.7782 -0.0825
 1352TFB     F420760   6.119   4.660   4.006  0.1711 -0.2886 -0.1486
 1353TFB      B20761   5.581   3.033   2.967  0.9555 -0.5685 -0.1047
 1353TFB     F120762   5.672   3.102   2.894 -0.3694 -0.1138  0.2159
 1353TFB     F220763   5.467   3.008   2.892  0.2006  0.6000  0.4783
 1353TFB     F320764   5.637   2.921   3.027  0.4932  0.0248 -0.2260
 1353TFB     F420765   5.534   3.105   3.079 -0.1751  0.0301  0.0556
 1354TFB      B20766   0.638   3.728   5.987 -0.9336  0.6802  0.4663
 1354TFB     F120767   0.675   3.733   5.852 -0.4384 -0.2275 -0.9861
 1354TFB     F220768   0.737   3.651   6.059 -0.1909 -0.5870  0.8597
 1354TFB     F320769   0.642   3.857   6.038 -0.0183 -0.0639  0.8176
 1354TFB     F420770   0.510   3.675   5.997  0.1058  0.3982 -0.1884
 1355TFB      B20771   4.814   6.276   4.470  0.3979  0.3869  0.1167
 1355TFB     F120772   4.795   6.338   4.349  0.2134 -0.2265  0.2736
 1355TFB     F220773   4.950   6.278   4.494  0.0729  0.0712  0.0071
 1355TFB     F320774   4.744   6.345   4.570  0.4179 -0.2949 -0.1652
 1355TFB     F420775   4.764   6.146   4.453  0.1831 -0.0548 -0.1369
 1356TFB      B20776   2.473   1.432   3.284  0.0146 -0.0215  0.4196
 1356TFB     F120777   2.380   1.333   3.262  0.1118  0.0991  0.2748
 1356TFB     F220778   2.513   1.493   3.168 -0.4885 -0.1614  0.4456
 1356TFB     F320779   2.417   1.523   3.376  0.2846 -0.2194 -0.0642
 1356TFB     F420780   2.590   1.381   3.333  0.1448 -0.1538 -0.5816
 1357TFB      B20781   5.802   4.029   5.826 -1.0304  0.0887 -0.5188
 1357TFB     F120782   5.874   4.098   5.920 -0.2302  0.3991  0.5253
 1357TFB     F220783   5.852   4.037   5.699  0.2290  0.4522  0.1263
 1357TFB     F320784   5.796   3.895   5.857  0.1397  0.2340 -0.2659
 1357TFB     F420785   5.669   4.076   5.812  0.0792  0.0233  0.7590
 1358TFB      B20786   0.868   1.575   1.430  0.2456  0.0570 -0.3570
 1358TFB     F120787   0.958   1.514   1.338 -0.5300  0.3581 -0.2206
 1358TFB     F220788   0.863   1.503   1.551 -0.1442 -0.1083 -1.1288
 1358TFB     F320789   0.915   1.700   1.455  0.0221 -0.3716  0.0719
 1358TFB     F420790   0.740   1.570   1.372  0.4255  0.1556  0.1054
 1359TFB      B20791   0.205   1.435   1.307 -0.4411 -0.4550  0.1269
 1359TFB     F120792   0.296   1.536   1.342 -0.4218  0.1154 -0.4191
 1359TFB     F220793   0.093   1.445   1.387 -0.3571  0.1464 -0.0808
 1359TFB     F320794   0.192   1.456   1.166  0.1709 -0.1215  0.1484
 1359TFB     F420795   0.266   1.312   1.336 -0.2818 -0.6422  0.2076
 1360TFB      B20796   1.574   3.696   5.025 -0.2959 -0.1464  0.1141
 1360TFB     F120797   1.576   3.781   5.132 -0.3916 -0.0683  0.1116
 1360TFB     F220798   1.483   3.742   4.931  0.3082  1.1096 -0.0902
 1360TFB     F320799   1.698   3.702   4.967 -0.4923 -0.0740 -0.1537
 1360TFB     F420800   1.553   3.560   5.057  0.3956 -0.1937  0.5606
 1361TFB      B20801   4.387   2.653   3.523 -0.0645 -0.2819 -0.1969
 1361TFB     F120802   4.451   2.752   3.463  0.0292 -0.4043 -0.2263
 1361TFB     F220803   4.461   2.541   3.491  0.3865  0.1990  0.3366
 1361TFB     F320804   4.376   2.664   3.653 -0.2886  0.1692  0.0122
 1361TFB     F420805   4.263   2.636   3.472  0.2952  0.0028 -0.2951
 1362TFB      B20806   1.124   3.770   3.163  0.5778 -0.2520 -0.4859
 1362TFB     F120807   1.119   3.755   3.303 -0.3146 -0.1650  0.2128
 1362TFB     F220808   1.089   3.908   3.141 -0.6727 -0.3840  0.2837
 1362TFB     F320809   1.243   3.727   3.102  0.0944 -0.0308 -0.2799
 1362TFB     F420810   1.028   3.692   3.104 -0.2817 -0.8889  0.3382
 1363TFB      B20811   2.139   5.183   2.925 -0.4633 -1.1877  0.7280
 1363TFB     F120812   2.222   5.257   2.840 -0.0410 -0.1106  0.2967
 1363TFB     F220813   2.038   5.264   2.981  0.8100 -0.2032 -0.0910
 1363TFB     F320814   2.075   5.085   2.852  0.3625 -0.0844 -0.3940
 1363TFB     F420815   2.212   5.135   3.033 -0.1280 -0.2207 -0.4573
 1364TFB      B20816   0.023   3.022   3.355  0.7742  1.1033 -0.3815
 1364TFB     F120817  -0.055   3.119   3.310 -0.4912 -0.1650  0.0055
 1364TFB     F220818  -0.019   2.984   3.480 -0.7290 -0.1727 -0.3929
 1364TFB     F320819   0.041   2.915   3.270 -0.0640 -0.0231  0.8285
 1364TFB     F420820   0.148   3.069   3.377 -0.3206 -0.4966 -0.0647
 1365TFB      B20821   2.071   4.689   4.789 -0.4650  0.3682  0.4985
 1365TFB     F120822   2.000   4.737   4.680  0.4001  0.0709 -0.2008
 1365TFB     F220823   2.144   4.582   4.752  0.0528 -0.4266 -0.3934
 1365TFB     F320824   2.159   4.785   4.824  0.3493 -0.1529  0.1359
 1365TFB     F420825   1.987   4.661   4.894 -0.2175  0.2271 -0.2716
 1366TFB      B20826   0.304   5.634   5.377 -0.3882  0.1227 -0.5905
 1366TFB     F120827   0.369   5.557   5.274 -0.2466 -0.2138 -0.5044
 1366TFB     F220828   0.378   5.628   5.500 -1.0405  0.3220  0.2891
 1366TFB     F320829   0.301   5.764   5.334  0.5269 -0.2026  0.2735
 1366TFB     F420830   0.170   5.587   5.394  0.2263  0.4927 -0.2941
 1367TFB      B20831   3.600   4.314   0.840  0.1622 -0.5501  0.1277
 1367TFB     F120832   3.725   4.287   0.790  0.5543  0.2548 -0.4911
 1367TFB     F220833   3.608   4.436   0.892  0.4692  0.3493 -0.3851
 1367TFB     F320834   3.519   4.322   0.728  0.8355  0.1911 -0.4078
 1367TFB     F420835   3.553   4.221   0.924  0.0850 -0.1130  0.6373
 1368TFB      B20836   3.392   6.085   4.122  0.0477 -0.0530  0.5381
 1368TFB     F120837   3.391   5.949   4.154 -0.0795  0.2242 -0.1256
 1368TFB     F220838   3.520   6.131   4.146  0.2305  0.3587 -0.0151
 1368TFB     F320839   3.388   6.088   3.982  0.3549  0.2548  0.5008
 1368TFB     F420840   3.292   6.165   4.176  0.2279 -0.1295  0.5475
 1369TFB      B20841   1.815   1.329   1.125 -0.6371 -0.1525  0.7875
 1369TFB     F120842   1.769   1.206   1.071  0.4450 -0.4023  0.2814
 1369TFB     F220843   1.729   1.401   1.199  0.5054  0.0133  0.1120
 1369TFB     F320844   1.927   1.307   1.194 -0.2231 -0.1954 -0.0825
 1369TFB     F420845   1.864   1.407   1.014  0.2318 -0.1878  0.2174
 1370TFB      B20846   5.242   5.867   5.492  0.1750  0.0907  0.3392
 1370TFB     F120847   5.120   5.848   5.433 -0.2535 -0.3724  0.3321
 1370TFB     F220848   5.315   5.962   5.417 -0.6381  0.2593 -0.2675
 1370TFB     F320849   5.226   5.902   5.629 -0.6841 -0.1159  0.1914
 1370TFB     F420850   5.313   5.749   5.476  0.4205 -0.3219 -0.2453
 1371TFB      B20851   3.220   1.925   3.807 -0.6353 -0.1167 -0.0559
 1371TFB     F120852   3.144   1.862   3.705 -0.0191 -0.1364 -0.1604
 1371TFB     F220853   3.258   1.823   3.894  0.3657  0.0378  0.5565
 1371TFB     F320854   3.338   1.987   3.758 -0.3813 -0.0295 -0.0424
 1371TFB     F420855   3.150   2.021   3.875  0.1015 -0.3121 -0.0335
 1372TFB      B20856   1.730   1.062   5.725  0.2213 -0.0255 -0.1349
 1372TFB     F120857   1.705   0.933   5.685 -0.1830 -0.2348  0.1015
 1372TFB     F220858   1.819   1.064   5.818  0.9005  0.0753  0.3313
 1372TFB     F320859   1.785   1.134   5.616 -0.0566  0.0685  0.2854
 1372TFB     F420860   1.612   1.122   5.762  0.5002  0.4986 -0.1883
 1373TFB      B20861   6.048   2.624   5.634  0.2851  0.2010 -0.1153
 1373TFB     F120862   5.942   2.724   5.625 -0.6441  0.2321 -0.3887
 1373TFB     F220863   6.170   2.682   5.660  0.3937 -0.3876  0.5623
 1373TFB     F320864   6.021   2.537   5.738 -0.3529 -0.1539  0.7056
 1373TFB     F420865   6.049   2.547   5.516  0.0848  0.2726 -0.4779
 1374TFB      B20866   2.849   3.448   3.607  0.3648 -0.5682  1.0727
 1374TFB     F120867   2.857   3.329   3.526  0.4926  0.5235 -0.5953
 1374TFB     F220868   2.754   3.438   3.702  0.0284 -0.0141  0.1522
 1374TFB     F320869   2.973   3.463   3.680 -0.1915 -0.1729 -0.0091
 1374TFB     F420870   2.834   3.556   3.524  0.2300  0.1199 -0.2606
 1375TFB      B20871   4.181   3.010   5.308 -0.1294 -0.7715  0.3068
 1375TFB     F120872   4.191   3.114   5.218 -0.2537  0.3721  0.5925
 1375TFB     F220873   4.085   2.923   5.265  0.6320  0.0032 -0.1127
 1375TFB     F320874   4.305   2.945   5.332  0.7160  0.3951 -0.1508
 1375TFB     F420875   4.144   3.071   5.423 -0.2885  0.3877 -0.0686
 1376TFB      B20876   5.910   0.969   0.095  0.3889 -0.3574 -0.0654
 1376TFB     F120877   5.839   0.997  -0.027 -0.3371  0.0808  0.1137
 1376TFB     F220878   5.906   1.080   0.175  0.0232  0.1439 -0.0569
 1376TFB     F320879   5.865   0.849   0.157  0.4485  0.1790 -0.1222
 1376TFB     F420880   6.043   0.945   0.061 -0.2621 -0.1435  0.4459
 1377TFB      B20881   0.901   2.340   5.348  0.0744 -0.0711  0.1318
 1377TFB     F120882   1.003   2.395   5.272  0.3779 -0.0341  0.0918
 1377TFB     F220883   0.919   2.204   5.363  0.0526 -0.0061  0.2821
 1377TFB     F320884   0.878   2.395   5.472  0.2530 -0.2054 -0.0862
 1377TFB     F420885   0.786   2.357   5.282 -0.1184  0.4648  0.1167
 1378TFB      B20886   1.440   3.464   3.632 -0.2218  0.3028  0.5574
 1378TFB     F120887   1.410   3.555   3.536  0.1425 -0.0039  0.1459
 1378TFB     F220888   1.561   3.400   3.595  0.0324  0.0850  0.3654
 1378TFB     F320889   1.455   3.510   3.766  0.1332 -0.5308  0.0974
 1378TFB     F420890   1.352   3.368   3.628 -0.3850  0.5707  0.5587
 1379TFB      B20891   3.169   0.119   1.275  0.5046  1.0859 -0.4695
 1379TFB     F120892   3.141   0.124   1.407 -0.1422  0.2547 -0.7300
 1379TFB     F220893   3.267   0.022   1.241  0.2803  0.0465 -0.0737
 1379TFB     F320894   3.057   0.085   1.207  0.5514  0.1150  0.3900
 1379TFB     F420895   3.199   0.251   1.235 -0.1543 -0.2875  0.0500
 1380TFB      B20896   4.818   1.378   1.559 -0.3703 -0.7190  0.2354
 1380TFB     F120897   4.804   1.328   1.434  0.0664  0.3308  0.3073
 1380TFB     F220898   4.715   1.460   1.597 -0.0405 -0.0753  0.3398
 1380TFB     F320899   4.795   1.268   1.643 -0.3458 -0.1872  0.2004
 1380TFB     F420900   4.946   1.438   1.574 -0.1083  0.2074 -0.2949
 1381TFB      B20901   3.554   5.020   5.035  0.2220 -0.4315 -0.6346
 1381TFB     F120902   3.514   5.048   5.167  0.6916 -0.2987  0.3334
 1381TFB     F220903   3.670   5.091   5.018 -0.5493  0.3903 -0.4426
 1381TFB     F320904   3.594   4.885   5.013  0.1610 -0.5121 -0.0423
 1381TFB     F420905   3.462   5.057   4.938 -0.4235  0.1238 -0.7787
 1382TFB      B20906   3.426   2.695   3.780 -0.3198 -0.3357 -0.9096
 1382TFB     F120907   3.345   2.592   3.826 -0.2867  0.1647  0.4847
 1382TFB     F220908   3.473   2.755   3.894 -0.1227 -0.6478 -0.0839
 1382TFB     F320909   3.536   2.648   3.713  0.2344 -0.3978 -0.0834
 1382TFB     F420910   3.331   2.770   3.712 -0.0082 -0.2011 -0.1508
 1383TFB      B20911   1.319   3.677   4.339 -0.1749 -0.4430  0.1249
 1383TFB     F120912   1.423   3.629   4.269  0.4165  0.1320 -0.1690
 1383TFB     F220913   1.278   3.563   4.401 -0.2269  0.1469 -0.1315
 1383TFB     F320914   1.351   3.776   4.436 -0.6116 -0.4302  0.1459
 1383TFB     F420915   1.227   3.723   4.249  0.1341 -0.0555  0.4698
 1384TFB      B20916   5.085   3.792   1.796  0.1479  0.0727 -0.0474
 1384TFB     F120917   5.137   3.660   1.799  0.4970 -0.2358  0.3049
 1384TFB     F220918   5.190   3.870   1.758 -0.2413  0.2101 -0.2952
 1384TFB     F320919   4.979   3.793   1.705  0.2560 -0.4233  0.5242
 1384TFB     F420920   5.051   3.821   1.923  0.7692  0.5514 -0.6188
 1385TFB      B20921   1.781   4.167   4.854 -0.3096 -0.2463  0.4180
 1385TFB     F120922   1.796   4.233   4.972  0.4466  0.6929 -0.3913
 1385TFB     F220923   1.717   4.045   4.867  0.0436  0.2427  0.0322
 1385TFB     F320924   1.697   4.238   4.766 -0.1771 -0.0647 -0.3323
 1385TFB     F420925   1.899   4.155   4.785  0.3225 -0.2347  0.0512
 1386TFB      B20926   5.846   2.600   4.792 -0.1920  0.5056 -0.3903
 1386TFB     F120927   5.832   2.541   4.670  0.1321  0.1315 -0.1786
 1386TFB     F220928   5.783   2.547   4.897  0.5070 -0.4734  0.0797
 1386TFB     F320929   5.985   2.607   4.825  0.7760  0.7072  0.0534
 1386TFB     F420930   5.797   2.729   4.781 -0.5447  0.2502  0.6080
 1387TFB      B20931   5.875   5.376   3.961 -0.8434 -0.0042  0.6353
 1387TFB     F120932   5.770   5.440   3.891 -0.2252  0.2172 -0.2052
 1387TFB     F220933   5.962   5.470   4.021 -0.1262  0.3013  0.1494
 1387TFB     F320934   5.813   5.303   4.064 -0.4593 -0.0620  0.4262
 1387TFB     F420935   5.943   5.288   3.881  0.3089  0.2147 -0.4030
 1388TFB      B20936   4.902   5.548   4.775 -0.1901 -0.2682  0.2966
 1388TFB     F120937   4.871   5.580   4.637 -0.4270 -0.2210  0.3746
 1388TFB     F220938   5.000   5.629   4.823 -0.1928  0.0994 -0.1502
 1388TFB     F320939   4.784   5.572   4.854  0.0739  0.0153  0.3639
 1388TFB     F420940   4.947   5.422   4.771  0.1266  0.2687  0.0446
 1389TFB      B20941   4.432   3.701   1.004 -0.0180  0.0245 -0.5140
 1389TFB     F120942   4.354   3.615   0.934  0.4076  0.0867 -0.0381
 1389TFB     F220943   4.531   3.636   1.071 -0.4103 -0.1393  0.6955
 1389TFB     F320944   4.489   3.800   0.918  0.1924  0.4781 -0.0436
 1389TFB     F420945   4.373   3.769   1.109  0.1915 -0.2207 -0.0084
 1390TFB      B20946   0.254   2.887   4.319  0.9739 -0.4873 -0.0038
 1390TFB     F120947   0.263   2.779   4.406 -0.0545 -0.4489 -0.0070
 1390TFB     F220948   0.369   2.965   4.343  0.2048 -0.0280 -0.3383
 1390TFB     F320949   0.257   2.832   4.192  0.3312 -0.8324  0.1519
 1390TFB     F420950   0.146   2.958   4.354 -0.1767  0.8667 -0.4597
 1391TFB      B20951   3.544   5.867   2.286  0.4625  0.5066 -0.5080
 1391TFB     F120952   3.660   5.919   2.246 -0.6248 -0.7113  0.0888
 1391TFB     F220953   3.496   5.943   2.391  0.4344 -0.0879  0.0481
 1391TFB     F320954   3.458   5.870   2.174  0.0597  0.2554  0.2250
 1391TFB     F420955   3.561   5.734   2.326  0.0389  0.1331  0.7291
 1392TFB      B20956   0.188   4.824   4.284  0.3818 -1.0290  0.0596
 1392TFB     F120957   0.239   4.942   4.226  0.0365  0.3860 -0.7619
 1392TFB     F220958   0.250   4.718   4.230 -0.0288  0.2252  0.0026
 1392TFB     F320959   0.192   4.827   4.422  0.4343 -0.3611 -0.5353
 1392TFB     F420960   0.056   4.822   4.244 -0.1732 -0.3015 -0.3819
 1393TFB      B20961   1.227   1.628   5.635  0.4888  0.7333 -0.0197
 1393TFB     F120962   1.243   1.649   5.769  0.4610 -0.0159 -0.2421
 1393TFB     F220963   1.092   1.597   5.597 -0.6366  0.1912  0.8733
 1393TFB     F320964   1.269   1.752   5.589 -0.2126  0.2149 -0.2585
 1393TFB     F420965   1.299   1.517   5.597 -0.5221  0.0398  0.4110
 1394TFB      B20966   3.874   3.579   4.998 -0.4080  0.4890  0.4350
 1394TFB     F120967   3.904   3.614   4.865  0.0589 -0.3598  0.3838
 1394TFB     F220968   3.738   3.578   5.011  0.2757 -0.5739 -0.3128
 1394TFB     F320969   3.937   3.456   5.031 -0.0602 -0.2169  0.0639
 1394TFB     F420970   3.929   3.668   5.089  0.4841  0.0343 -0.4348
 1395TFB      B20971   0.191   1.229   5.137  0.0310  0.3710  0.0511
 1395TFB     F120972   0.216   1.358   5.089 -0.3380 -0.0256 -0.1519
 1395TFB     F220973   0.224   1.122   5.047  0.5053  0.6535  0.1749
 1395TFB     F320974   0.253   1.224   5.261  0.0178  0.1244 -0.6926
 1395TFB     F420975   0.053   1.217   5.152 -0.3932 -0.2245 -0.0273
 1396TFB      B20976   3.368   3.975   3.425 -0.5611  0.1949 -0.4655
 1396TFB     F120977   3.402   3.863   3.356 -0.2678  0.6216  0.0081
 1396TFB     F220978   3.287   3.944   3.528  0.2749 -0.1705  0.3304
 1396TFB     F320979   3.491   4.034   3.460 -0.1220 -0.2805  0.2898
 1396TFB     F420980   3.303   4.060   3.336 -0.2602  0.1578  0.1527
 1397TFB      B20981   3.532   2.931   5.517 -0.1605  0.4981 -0.3573
 1397TFB     F120982   3.434   2.922   5.418  0.0283 -0.0727 -0.2006
 1397TFB     F220983   3.526   3.047   5.580 -0.4015 -0.1253 -0.4899
 1397TFB     F320984   3.505   2.831   5.612  0.3041 -0.4722  0.6249
 1397TFB     F420985   3.662   2.920   5.459  0.4572  0.6277  0.1571
 1398TFB      B20986   2.337   2.955   1.844  0.2047 -0.3404 -0.1622
 1398TFB     F120987   2.312   2.959   1.709 -0.1935 -0.4523 -0.3273
 1398TFB     F220988   2.395   3.076   1.866 -0.7728  0.2624 -0.3913
 1398TFB     F320989   2.208   2.968   1.891  0.1196  0.0918 -0.5658
 1398TFB     F420990   2.391   2.840   1.899 -0.5648 -0.3311  0.2039
 1399TFB      B20991   1.178   4.426   3.765  0.1936 -0.6268  0.2305
 1399TFB     F120992   1.140   4.438   3.633  0.3672  0.2032 -0.0826
 1399TFB     F220993   1.287   4.506   3.775  0.9724  0.4651 -0.2733
 1399TFB     F320994   1.074   4.474   3.843  0.6206  0.0329 -0.5514
 1399TFB     F420995   1.220   4.292   3.804 -0.0479 -0.0599  0.1363
 1400TFB      B20996   1.093   5.833   4.957  0.4662  0.4546  0.6186
 1400TFB     F120997   1.071   5.867   5.089 -0.2412 -0.0697 -0.2520
 1400TFB     F220998   1.180   5.733   4.943  0.3197 -0.2826 -0.1028
 1400TFB     F320999   0.977   5.799   4.889  0.5100  0.0340  0.2696
 1400TFB     F421000   1.140   5.946   4.884 -0.2949 -0.2569 -0.4904
 1401TFB      B21001   4.298   6.191   4.635  0.2035  0.1855 -0.5640
 1401TFB     F121002   4.167   6.222   4.588  0.0142 -0.2411  0.2210
 1401TFB     F221003   4.365   6.309   4.667  0.0510  0.3881 -0.9156
 1401TFB     F321004   4.298   6.094   4.742  0.0571  0.0025 -0.0631
 1401TFB     F421005   4.357   6.143   4.524  0.0977  0.0800 -0.2202
 1402TFB      B21006   6.062   4.038   5.108  0.1642 -0.0104 -0.4143
 1402TFB     F121007   6.181   4.110   5.080 -0.4960  0.0337 -0.1251
 1402TFB     F221008   6.096   3.906   5.134  0.1435  0.4062  0.3762
 1402TFB     F321009   5.990   4.102   5.200  0.0489 -0.1597  0.1599
 1402TFB     F421010   5.987   4.026   4.992  0.2437 -0.3357 -0.7136
 1403TFB      B21011   5.162   1.707   4.358  0.4147 -0.1467  0.0842
 1403TFB     F121012   5.196   1.837   4.329 -0.5834 -0.0413 -0.5592
 1403TFB     F221013   5.094   1.726   4.480 -0.7560 -0.0589  0.4390
 1403TFB     F321014   5.072   1.664   4.265  0.4261  0.2120  0.2805
 1403TFB     F421015   5.272   1.624   4.368 -0.5129 -0.4516 -0.6330
 1404TFB      B21016   5.312   4.678   5.586  0.7896 -0.0813  0.4074
 1404TFB     F121017   5.357   4.750   5.476  0.0568 -0.3262 -1.1710
 1404TFB     F221018   5.201   4.740   5.645 -0.3961 -0.1037  0.0400
 1404TFB     F321019   5.277   4.553   5.538 -0.0995 -0.2389 -0.0204
 1404TFB     F421020   5.411   4.653   5.672  0.1242 -0.4758  0.7661
 1405TFB      B21021   3.265   4.031   1.437  0.0869  0.1083 -0.5728
 1405TFB     F121022   3.357   3.944   1.391  0.0467 -0.2523 -0.0172
 1405TFB     F221023   3.250   4.005   1.565 -0.2017 -0.3656 -0.3131
 1405TFB     F321024   3.293   4.160   1.404  0.3571  0.1297  0.3651
 1405TFB     F421025   3.147   3.991   1.373  0.1384 -0.4030  0.7432
 1406TFB      B21026   5.747   5.511   1.291 -0.2702 -0.7395  0.4240
 1406TFB     F121027   5.846   5.443   1.208  0.2337  0.0946 -0.7224
 1406TFB     F221028   5.631   5.430   1.290 -0.1672  0.5498  0.1233
 1406TFB     F321029   5.790   5.520   1.423  0.8571 -0.3455 -0.3375
 1406TFB     F421030   5.730   5.637   1.246  0.3081 -0.0295 -0.7570
 1407TFB      B21031   5.651   0.553   2.270  0.2878 -0.0086  0.8061
 1407TFB     F121032   5.783   0.608   2.303  0.0445  0.8256  0.3673
 1407TFB     F221033   5.649   0.413   2.255  0.1560 -0.2363 -0.1266
 1407TFB     F321034   5.561   0.609   2.356 -0.6322  0.0220  0.0289
 1407TFB     F421035   5.625   0.610   2.154  0.3907  0.1683 -0.3048
 1408TFB      B21036   4.265   4.796   0.668 -0.0905  0.3532 -0.6051
 1408TFB     F121037   4.336   4.836   0.555 -0.1009 -0.0376  0.8626
 1408TFB     F221038   4.215   4.675   0.634 -0.0047 -0.2664  0.1679
 1408TFB     F321039   4.354   4.799   0.776 -0.3377 -0.2159  0.0973
 1408TFB     F421040   4.169   4.887   0.692 -0.3321 -0.5441  0.5563
 1409TFB      B21041   1.267   6.101   3.003 -0.0233 -0.2832  0.9010
 1409TFB     F121042   1.398   6.057   3.003 -0.0185 -0.5409 -0.1738
 1409TFB     F221043   1.265   6.243   3.006  0.0668  0.1282  0.3102
 1409TFB     F321044   1.218   6.056   2.883  0.2233  0.4491 -0.2864
 1409TFB     F421045   1.193   6.038   3.099 -0.0097 -0.8139  0.8239
 1410TFB      B21046   5.414   6.040   3.182  0.6082 -0.1951 -0.1138
 1410TFB     F121047   5.316   6.082   3.092  0.4775 -0.1427  0.0997
 1410TFB     F221048   5.482   5.932   3.124 -0.1874  0.3013 -0.1795
 1410TFB     F321049   5.494   6.159   3.215 -0.2156  0.2482  1.0237
 1410TFB     F421050   5.340   6.000   3.291  0.4877  0.1766 -0.3455
 1411TFB      B21051   6.168   1.756   5.802  1.0308  1.3048 -0.0986
 1411TFB     F121052   6.158   1.673   5.679 -0.2069 -0.7545  0.5307
 1411TFB     F221053   6.121   1.687   5.916  0.1416 -0.4167  0.2774
 1411TFB     F321054   6.296   1.804   5.826 -0.0634  0.0197  0.2638
 1411TFB     F421055   6.079   1.861   5.781 -0.1138  0.3289 -0.2319
 1412TFB      B21056   2.255   3.890   3.348  0.5394  0.6424 -0.5352
 1412TFB     F121057   2.147   3.828   3.277 -0.0213 -0.2478  0.1735
 1412TFB     F221058   2.302   3.816   3.450 -0.1802  0.0840 -0.1409
 1412TFB     F321059   2.356   3.909   3.259  0.1864 -0.0125 -0.0385
 1412TFB     F421060   2.217   4.009   3.409 -0.4424 -0.4409  0.5602
 1413TFB      B21061   3.824   3.085   4.369 -0.0575 -0.4192 -0.5489
 1413TFB     F121062   3.861   2.993   4.458  0.0025 -0.1027  0.1859
 1413TFB     F221063   3.936   3.114   4.295 -0.1984  0.2166  0.5035
 1413TFB     F321064   3.724   3.030   4.293  0.0526  0.1409 -0.3363
 1413TFB     F421065   3.784   3.202   4.441  0.2782 -0.1659  0.1783
 1414TFB      B21066   0.860   0.391   1.577  0.5843 -0.2318  0.3671
 1414TFB     F121067   0.734   0.438   1.625  0.4122  0.5607 -0.5981
 1414TFB     F221068   0.846   0.288   1.477  0.3501  0.0835 -0.0325
 1414TFB     F321069   0.926   0.502   1.529  0.1754 -0.0696  0.3305
 1414TFB     F421070   0.938   0.344   1.681 -0.2842 -0.0612 -0.2016
 1415TFB      B21071   5.490   3.268   3.746 -1.3470 -0.2817 -0.0297
 1415TFB     F121072   5.471   3.327   3.877  0.1119 -0.4019  0.3106
 1415TFB     F221073   5.373   3.241   3.681  0.4802  0.1713  0.1084
 1415TFB     F321074   5.557   3.358   3.672 -0.3616 -0.5006  0.2191
 1415TFB     F421075   5.568   3.149   3.759 -0.0968  0.2046 -0.6149
 1416TFB      B21076   0.620   5.259   0.111 -0.5527 -0.6395  0.2813
 1416TFB     F121077   0.495   5.227   0.143  0.2300  0.5244  0.1158
 1416TFB     F221078   0.622   5.328  -0.010  0.5381 -0.2047  0.0878
 1416TFB     F321079   0.692   5.334   0.203  0.2363 -0.5534 -0.0211
 1416TFB     F421080   0.692   5.143   0.097 -0.3828  0.3280  0.1597
 1417TFB      B21081   5.685   4.334   5.398 -0.5393 -0.6157  0.8693
 1417TFB     F121082   5.807   4.283   5.426  0.9246 -0.2879 -0.2699
 1417TFB     F221083   5.582   4.283   5.468  0.4635  0.4992  0.0038
 1417TFB     F321084   5.695   4.476   5.412 -0.1731 -0.2978  0.0641
 1417TFB     F421085   5.675   4.327   5.261 -0.3622 -0.4124 -0.0346
 1418TFB      B21086   2.685   1.753   5.739 -0.0796  0.7727 -0.0253
 1418TFB     F121087   2.731   1.652   5.828  0.2579  0.4274  0.2969
 1418TFB     F221088   2.561   1.797   5.778 -0.2088  0.0866 -0.3059
 1418TFB     F321089   2.771   1.856   5.722  0.1884  0.4384  0.0262
 1418TFB     F421090   2.669   1.683   5.620 -0.2578 -0.1978  0.3903
 1419TFB      B21091   1.164   0.435   0.968 -0.7136 -0.5699  0.0006
 1419TFB     F121092   1.094   0.362   0.880 -0.1875  0.0818  0.0641
 1419TFB     F221093   1.232   0.543   0.909 -0.4032  0.7411 -0.0459
 1419TFB     F321094   1.089   0.480   1.080 -0.3884 -0.2693  0.3379
 1419TFB     F421095   1.263   0.345   1.011 -0.4507 -0.0035 -0.0727
 1420TFB      B21096   5.898   4.166   3.308  0.6937  0.4488  0.2718
 1420TFB     F121097   5.880   4.151   3.443  0.7544 -0.4017 -0.5737
 1420TFB     F221098   6.036   4.188   3.305 -0.6018 -0.1173 -0.9927
 1420TFB     F321099   5.884   4.047   3.244 -0.6653  0.3363  0.6401
 1420TFB     F421100   5.825   4.264   3.248 -0.1307  0.5333  0.6812
 1421TFB      B21101   1.483   1.913   1.250 -1.1486 -0.7016  0.3975
 1421TFB     F121102   1.603   1.849   1.265 -0.0466  0.7122 -0.3884
 1421TFB     F221103   1.394   1.841   1.171  0.3207  0.0701  0.4125
 1421TFB     F321104   1.428   1.942   1.377 -1.0395 -0.3261  0.2203
 1421TFB     F421105   1.497   2.031   1.179 -0.2979 -0.3199  0.4037
 1422TFB      B21106   1.602   3.038   6.245  0.0176  0.3756  0.8396
 1422TFB     F121107   1.515   3.053   6.137 -0.0385  0.3650 -0.1013
 1422TFB     F221108   1.603   3.153   6.320  0.0557  0.3012 -0.1916
 1422TFB     F321109   1.560   2.938   6.322  0.5811  0.0095 -0.5353
 1422TFB     F421110   1.735   3.009   6.199  0.3469 -0.1911 -0.5845
 1423TFB      B21111   4.119   1.399   1.964 -0.4258  0.5337  0.8574
 1423TFB     F121112   4.086   1.515   2.042  0.2099  0.7069  0.0436
 1423TFB     F221113   4.206   1.436   1.861  0.0669 -0.0907  0.0897
 1423TFB     F321114   4.167   1.293   2.038  0.6870  0.0319  0.1189
 1423TFB     F421115   4.002   1.361   1.916 -0.2531 -0.0656  0.6312
 1424TFB      B21116   1.062   0.086   2.540 -0.1926  0.2417  0.7235
 1424TFB     F121117   1.098   0.070   2.670 -0.1744 -0.5644  0.3285
 1424TFB     F221118   0.935   0.038   2.513 -0.2393  0.0573  0.2059
 1424TFB     F321119   1.067   0.212   2.495 -0.1385  0.1143  0.0231
 1424TFB     F421120   1.149   0.001   2.469 -0.1569 -0.1338 -0.2685
 1425TFB      B21121   4.453   3.757   3.126  0.3412  0.2066  0.4752
 1425TFB     F121122   4.332   3.693   3.091  0.0420  0.0091 -0.0915
 1425TFB     F221123   4.556   3.675   3.096  0.1179 -0.0672 -0.2682
 1425TFB     F321124   4.469   3.876   3.058 -0.2831  0.0141 -0.3870
 1425TFB     F421125   4.455   3.777   3.265 -0.3205 -0.7398  0.0853
 1426TFB      B21126   1.550   6.201   3.350 -0.1653  0.8156 -0.2627
 1426TFB     F121127   1.448   6.149   3.432 -0.4657  0.3463 -0.4816
 1426TFB     F221128   1.632   6.285   3.430  0.1880 -0.2825  0.2158
 1426TFB     F321129   1.643   6.116   3.294 -0.0957  0.8262 -0.3488
 1426TFB     F421130   1.482   6.270   3.256 -0.0731  0.1391  0.2043
 1427TFB      B21131   0.052   0.944   5.982  0.3527  0.3281 -0.4281
 1427TFB     F121132   0.159   1.008   5.913  0.4135  0.2248  0.4035
 1427TFB     F221133  -0.041   0.900   5.898 -0.2942 -0.1314 -0.2464
 1427TFB     F321134   0.103   0.842   6.060 -0.1129 -0.4901 -0.0126
 1427TFB     F421135  -0.003   1.040   6.060  0.1013 -0.1288 -0.3111
 1428TFB      B21136   0.850   1.613   5.241 -0.1022  0.5594  0.9028
 1428TFB     F121137   0.850   1.488   5.299  0.7114  0.1346 -0.4273
 1428TFB     F221138   0.961   1.696   5.274 -0.0520 -0.3551 -0.3936
 1428TFB     F321139   0.866   1.604   5.098  0.5753  0.1846  0.2173
 1428TFB     F421140   0.735   1.680   5.263  0.2030  0.0379  0.0950
 1429TFB      B21141   4.583   1.569   4.633  0.4441 -0.0462  0.7063
 1429TFB     F121142   4.652   1.607   4.516 -0.1765  0.3096 -0.0720
 1429TFB     F221143   4.675   1.503   4.716 -0.3265  0.2177  0.2859
 1429TFB     F321144   4.526   1.672   4.703  0.0877 -0.0183 -0.1493
 1429TFB     F421145   4.483   1.479   4.599  0.3066 -0.2234  0.6824
 1430TFB      B21146   4.267   0.410   3.206 -0.1819  0.4282  0.1739
 1430TFB     F121147   4.258   0.441   3.074  0.1148  0.2786 -0.5580
 1430TFB     F221148   4.395   0.350   3.233 -0.2129  0.2329  0.0405
 1430TFB     F321149   4.238   0.522   3.279 -0.1372  0.3398  0.4705
 1430TFB     F421150   4.174   0.315   3.236 -0.4454  0.1082  0.2676
 1431TFB      B21151   0.659   3.622   2.715 -0.4099  0.0067 -0.3213
 1431TFB     F121152   0.676   3.758   2.697  0.2924  0.3792  0.2197
 1431TFB     F221153   0.593   3.601   2.833 -0.5236  0.1482  0.1985
 1431TFB     F321154   0.579   3.564   2.617 -0.1501 -0.0865 -0.1951
 1431TFB     F421155   0.784   3.554   2.706 -0.1422  0.1324 -0.1946
 1432TFB      B21156   4.668   1.675   0.887  0.2368 -0.2198 -0.4256
 1432TFB     F121157   4.738   1.773   0.941 -0.1400 -0.0049 -0.0157
 1432TFB     F221158   4.709   1.557   0.945 -0.5997 -0.0485  0.5005
 1432TFB     F321159   4.532   1.690   0.920 -0.2287 -0.4818  0.0705
 1432TFB     F421160   4.664   1.681   0.747 -0.2070 -0.2809  0.2849
 1433TFB      B21161   3.737   5.472   4.873  0.4189 -0.0612  0.0858
 1433TFB     F121162   3.798   5.465   4.993 -0.2059 -0.6229 -0.0632
 1433TFB     F221163   3.630   5.566   4.858  0.5766 -0.1545  0.2147
 1433TFB     F321164   3.832   5.514   4.783  0.2638 -0.3349 -0.0508
 1433TFB     F421165   3.692   5.353   4.835  0.1132  0.3610  0.4627
 1434TFB      B21166   4.114   3.946   1.414 -0.2605  0.0103 -0.3042
 1434TFB     F121167   4.087   3.971   1.546  0.0322  0.3431  0.1962
 1434TFB     F221168   4.072   4.052   1.342 -0.6448  0.4115  0.1766
 1434TFB     F321169   4.251   3.911   1.402  0.3332  0.3075 -0.4484
 1434TFB     F421170   4.032   3.835   1.372  0.2691  0.3726  0.4109
 1435TFB      B21171   0.316   2.853   6.288  0.9854  0.1022 -0.7990
 1435TFB     F121172   0.205   2.928   6.301 -0.1627 -0.0933  0.0749
 1435TFB     F221173   0.434   2.910   6.333  0.3521  0.0948 -0.4224
 1435TFB     F321174   0.283   2.730   6.347  0.0607  0.5884  0.1786
 1435TFB     F421175   0.347   2.834   6.152 -0.1679 -0.1027 -0.2125
 1436TFB      B21176   0.473   2.683   3.693  0.2662 -0.6525  0.0770
 1436TFB     F121177   0.516   2.559   3.741  0.7053  0.5084 -0.2109
 1436TFB     F221178   0.451   2.751   3.811 -0.5866 -0.0101 -0.2663
 1436TFB     F321179   0.574   2.746   3.627  0.1935  0.3173 -0.0542
 1436TFB     F421180   0.350   2.693   3.626  0.2495  0.0405 -0.4797
 1437TFB      B21181   1.636   0.814   3.927  0.1633 -0.3185  0.0643
 1437TFB     F121182   1.676   0.685   3.911 -0.2045 -0.0100 -0.2778
 1437TFB     F221183   1.617   0.838   4.066 -0.3057 -0.2213  0.6114
 1437TFB     F321184   1.722   0.904   3.862 -0.4125  0.2226 -0.0881
 1437TFB     F421185   1.512   0.811   3.868 -0.2444 -0.1072 -0.2206
 1438TFB      B21186   1.699   6.118   0.711  0.3562 -0.6525  0.5164
 1438TFB     F121187   1.665   6.233   0.642 -0.4823 -0.3434  0.1914
 1438TFB     F221188   1.721   6.025   0.620 -0.0758 -0.0829  0.8191
 1438TFB     F321189   1.826   6.149   0.772 -0.0314  0.3975 -0.2331
 1438TFB     F421190   1.605   6.085   0.801 -0.3442 -0.0304 -0.1368
 1439TFB      B21191   4.191   4.245   5.038  0.5127  0.3225 -0.1538
 1439TFB     F121192   4.051   4.240   5.027 -0.0808  0.4416 -0.2950
 1439TFB     F221193   4.224   4.178   5.155  0.5325 -0.2266 -0.0605
 1439TFB     F321194   4.250   4.198   4.923 -0.5044  0.0336 -0.0498
 1439TFB     F421195   4.232   4.380   5.052  0.3312 -0.4483 -0.1499
 1440TFB      B21196   4.916   0.713   1.310 -0.8963 -0.2408  0.2338
 1440TFB     F121197   4.959   0.765   1.184 -0.2202  0.1294 -0.8024
 1440TFB     F221198   4.799   0.775   1.345  0.4154  0.3907  0.1404
 1440TFB     F321199   4.904   0.575   1.303  0.2469 -0.1457  0.1261
 1440TFB     F421200   5.014   0.736   1.418 -0.2994  0.1919 -0.2647
 1441TFB      B21201   4.292   2.960   4.044  0.0436  0.2785 -0.9992
 1441TFB     F121202   4.368   3.071   4.100 -0.5778 -0.3185 -0.1759
 1441TFB     F221203   4.249   2.993   3.912 -0.2758  0.0353  0.0643
 1441TFB     F321204   4.373   2.849   4.039 -0.2129  0.0771 -0.3568
 1441TFB     F421205   4.179   2.949   4.125  0.1304 -0.5373  0.1050
 1442TFB      B21206   4.648   6.017   1.952 -0.1445  0.5997  0.4027
 1442TFB     F121207   4.554   6.118   1.968 -0.4895  0.0823 -0.3155
 1442TFB     F221208   4.577   5.892   1.944 -0.4050 -0.0038  0.6176
 1442TFB     F321209   4.713   6.045   1.837 -0.1546 -0.6400 -0.1038
 1442TFB     F421210   4.736   6.020   2.055  0.3975 -0.0050  0.1023
 1443TFB      B21211   2.163   2.764   5.585  0.8791 -0.5335 -0.0030
 1443TFB     F121212   2.191   2.845   5.478 -0.2456  0.4301  0.0421
 1443TFB     F221213   2.176   2.849   5.694  0.1281  0.0405  0.4014
 1443TFB     F321214   2.034   2.726   5.584  0.4812  0.3630  0.2336
 1443TFB     F421215   2.255   2.657   5.603 -0.3146  0.2456  0.0486
 1444TFB      B21216   6.177   5.760   1.602  0.7228  0.3626  0.1781
 1444TFB     F121217   6.265   5.740   1.504  0.0071  0.3560 -0.4087
 1444TFB     F221218   6.141   5.892   1.603  0.2904  0.1087 -0.6848
 1444TFB     F321219   6.070   5.683   1.577  0.5194 -0.6768 -0.3383
 1444TFB     F421220   6.214   5.725   1.731  0.4290 -0.0752  0.0026
 1445TFB      B21221   5.855   4.138   0.776  0.5894 -0.7291  1.2916
 1445TFB     F121222   5.789   4.207   0.876  0.3331 -0.2598  0.2207
 1445TFB     F221223   5.912   4.223   0.687  0.1955 -0.5437 -0.2301
 1445TFB     F321224   5.953   4.058   0.833  0.1367 -0.2487  0.0262
 1445TFB     F421225   5.753   4.060   0.723  0.3097  0.1470 -0.1286
 1446TFB      B21226   3.894   3.603   5.579 -0.7464 -0.2265  0.2338
 1446TFB     F121227   3.952   3.722   5.544 -0.5891 -0.1777  0.5597
 1446TFB     F221228   3.761   3.604   5.537 -0.2187 -0.0521 -0.3665
 1446TFB     F321229   3.965   3.489   5.525  0.3358 -0.2658  0.0638
 1446TFB     F421230   3.873   3.594   5.712  0.4775 -0.3943  0.2495
 1447TFB      B21231   3.251   0.507   1.697 -0.2802 -0.2344 -0.4118
 1447TFB     F121232   3.343   0.571   1.613  0.8614 -0.0875  0.1507
 1447TFB     F221233   3.230   0.379   1.654 -0.5651 -0.4582 -0.5546
 1447TFB     F321234   3.304   0.504   1.826 -0.1467  0.2100  0.1568
 1447TFB     F421235   3.135   0.578   1.682 -0.1690  0.5448  0.0250
 1448TFB      B21236   4.716   0.046   3.107  0.3042  0.3382  0.6560
 1448TFB     F121237   4.719   0.155   3.021  0.2976  0.4826 -0.6061
 1448TFB     F221238   4.838   0.022   3.161  0.1583 -0.3885  0.3830
 1448TFB     F321239   4.637   0.088   3.215 -0.2967 -0.7582 -0.1824
 1448TFB     F421240   4.665  -0.065   3.050 -0.2753  0.1272  0.3031
 1449TFB      B21241   3.518   2.096   3.067  0.4630 -0.0593 -0.5667
 1449TFB     F121242   3.604   1.987   3.064  0.4215 -0.1970  0.1836
 1449TFB     F221243   3.392   2.046   3.091 -0.8233  0.5334 -0.2236
 1449TFB     F321244   3.551   2.197   3.155  0.1653  0.3582 -0.4459
 1449TFB     F421245   3.521   2.149   2.941 -0.4940  0.1087  0.1225
 1450TFB      B21246   3.438   0.711   5.625  0.8250 -0.3404  0.4796
 1450TFB     F121247   3.570   0.737   5.610 -0.1898  0.2416 -0.0217
 1450TFB     F221248   3.434   0.581   5.652  0.5270 -0.0813  0.1661
 1450TFB     F321249   3.380   0.797   5.720  0.1696 -0.1922  0.0918
 1450TFB     F421250   3.382   0.722   5.495  0.0207  0.1289  0.4554
 1451TFB      B21251   5.009   0.373   5.606 -0.1553 -0.5302  0.6363
 1451TFB     F121252   5.111   0.447   5.551 -0.2938 -0.3387 -0.3375
 1451TFB     F221253   5.005   0.242   5.561 -0.2645  0.3127 -0.0930
 1451TFB     F321254   5.023   0.370   5.744 -0.1416 -0.4547 -0.1960
 1451TFB     F421255   4.887   0.426   5.571 -0.3840 -0.4043 -0.0214
 1452TFB      B21256   0.677   1.139   5.787  0.4530 -0.0110 -0.5214
 1452TFB     F121257   0.616   1.015   5.807 -0.1856 -1.1031 -0.1591
 1452TFB     F221258   0.676   1.176   5.651 -0.6995 -0.0896 -0.2372
 1452TFB     F321259   0.610   1.238   5.860 -0.0422 -0.2581 -0.4159
 1452TFB     F421260   0.805   1.125   5.834 -0.1359 -0.3479 -0.1173
 1453TFB      B21261   5.686   0.916   3.775  0.5735  0.0951  1.0346
 1453TFB     F121262   5.575   0.953   3.848 -0.2907 -0.5100  0.9277
 1453TFB     F221263   5.688   0.970   3.650 -0.2161  0.3145 -0.0622
 1453TFB     F321264   5.800   0.960   3.841  0.5344 -0.3891 -0.1154
 1453TFB     F421265   5.704   0.782   3.762 -0.2929  0.2929  0.2926
 1454TFB      B21266   4.356   5.486   4.398 -0.1517 -0.4889  0.0062
 1454TFB     F121267   4.400   5.396   4.305 -0.2417  0.0745  0.4438
 1454TFB     F221268   4.461   5.540   4.468  0.0725 -0.0277 -0.5392
 1454TFB     F321269   4.291   5.581   4.321  0.6589  0.2984  0.2989
 1454TFB     F421270   4.269   5.426   4.490  0.9205  0.0288 -0.2171
 1455TFB      B21271   3.748   3.043   6.341  0.4453  0.0659  0.1332
 1455TFB     F121272   3.789   3.113   6.466 -0.9274  0.2387  0.6452
 1455TFB     F221273   3.620   3.076   6.307  0.4860 -0.5598 -0.8273
 1455TFB     F321274   3.813   3.082   6.223 -0.2880  0.0692  0.4455
 1455TFB     F421275   3.761   2.912   6.369  0.3962 -0.3149  0.6507
 1456TFB      B21276   2.310   3.367   2.987 -0.7265 -0.3846  0.0490
 1456TFB     F121277   2.346   3.483   3.060  0.0027  0.1599  0.0245
 1456TFB     F221278   2.191   3.315   3.026 -0.2421 -0.3550 -0.1790
 1456TFB     F321279   2.326   3.405   2.852  0.4803  0.0156 -0.0573
 1456TFB     F421280   2.410   3.280   3.024  0.6229 -0.2378  0.2277
 1457TFB      B21281   4.591   5.097   2.398 -0.1433  0.5384  0.4889
 1457TFB     F121282   4.587   4.976   2.464 -0.2542 -0.5661 -0.3716
 1457TFB     F221283   4.533   5.197   2.471  0.0741 -0.0332 -0.5870
 1457TFB     F321284   4.725   5.140   2.369  0.2074 -0.0948 -0.2000
 1457TFB     F421285   4.527   5.088   2.276  0.3787 -0.1942 -0.2330
 1458TFB      B21286   2.577   4.446   3.276 -0.0125  0.1892  0.5455
 1458TFB     F121287   2.559   4.362   3.384  0.4098 -0.2671 -0.5014
 1458TFB     F221288   2.448   4.479   3.252 -0.4416 -0.2974  0.0069
 1458TFB     F321289   2.665   4.550   3.309 -0.0323  0.2035  0.1333
 1458TFB     F421290   2.616   4.374   3.164  0.2783  0.4210  0.3184
 1459TFB      B21291   3.248   4.966   2.792  0.1032 -0.3552 -0.4416
 1459TFB     F121292   3.266   5.021   2.661 -0.2404  0.3528  0.3720
 1459TFB     F221293   3.330   4.854   2.791  0.4184  0.4117  0.7706
 1459TFB     F321294   3.269   5.064   2.890  0.2281  0.0111 -0.4232
 1459TFB     F421295   3.115   4.928   2.803  0.1194  0.1039  0.3693
 1460TFB      B21296   1.905   0.947   3.344  1.1332  0.2879 -0.4293
 1460TFB     F121297   1.943   0.814   3.345 -0.1273  0.2207 -0.3557
 1460TFB     F221298   1.835   0.983   3.457 -0.0658  0.9886 -0.1879
 1460TFB     F321299   2.004   1.030   3.338  0.5133 -0.3885 -0.6344
 1460TFB     F421300   1.817   0.976   3.245 -0.4563  0.2460 -0.2377
 1461TFB      B21301   2.353   6.244   5.747  0.0562 -0.0640 -0.7381
 1461TFB     F121302   2.255   6.197   5.661  0.0346 -0.5793  0.1877
 1461TFB     F221303   2.396   6.142   5.825  0.4856 -0.1834 -0.1143
 1461TFB     F321304   2.454   6.306   5.680 -0.0937 -0.1159 -0.1073
 1461TFB     F421305   2.303   6.334   5.844 -1.0740 -0.0149  0.2486
 1462TFB      B21306   0.055   3.514   0.651 -0.3704 -0.6378 -0.2708
 1462TFB     F121307   0.003   3.635   0.634 -0.0961  0.2693 -0.9313
 1462TFB     F221308  -0.039   3.419   0.614  0.3050 -0.2094  0.2549
 1462TFB     F321309   0.167   3.495   0.577  0.4316  0.3322 -0.0366
 1462TFB     F421310   0.092   3.481   0.780  0.5051  0.2358  0.0358
 1463TFB      B21311   5.310   4.060   3.478  0.3153  0.2440 -0.4919
 1463TFB     F121312   5.298   3.990   3.363 -0.0012  0.1827 -0.0380
 1463TFB     F221313   5.299   3.973   3.592 -0.2543 -0.0499 -0.2485
 1463TFB     F321314   5.432   4.123   3.468 -0.2974 -0.1631  0.0823
 1463TFB     F421315   5.221   4.163   3.496  0.0799 -0.1658 -0.2811
 1464TFB      B21316   1.244   2.577   1.605 -0.5465  0.0301 -0.9678
 1464TFB     F121317   1.307   2.697   1.623 -0.6025 -0.2650 -0.4780
 1464TFB     F221318   1.278   2.509   1.488  0.8343 -0.0548 -0.6728
 1464TFB     F321319   1.261   2.500   1.725 -0.0619 -0.3962  0.0139
 1464TFB     F421320   1.117   2.612   1.595 -0.0432  0.2573 -0.7583
 1465TFB      B21321   2.459   0.642   4.640 -0.7589  0.5060  0.1042
 1465TFB     F121322   2.325   0.683   4.638  0.0225  0.5345 -0.1838
 1465TFB     F221323   2.533   0.701   4.744 -0.3311  0.2824 -0.2039
 1465TFB     F321324   2.457   0.505   4.664  0.3109 -0.5920 -0.1497
 1465TFB     F421325   2.520   0.669   4.516 -0.0653  0.3281 -0.0356
 1466TFB      B21326   1.125   0.352   4.795  0.8316 -0.8413 -0.0891
 1466TFB     F121327   1.263   0.340   4.809  0.3888 -0.1922  0.5220
 1466TFB     F221328   1.109   0.447   4.699  0.4067 -0.0817  0.3375
 1466TFB     F321329   1.072   0.227   4.757  0.0061  0.4854  0.5010
 1466TFB     F421330   1.064   0.385   4.921 -0.0264 -0.0542 -0.3182
 1467TFB      B21331   0.219   1.719   3.027 -0.5008 -0.1139 -0.1779
 1467TFB     F121332   0.084   1.712   3.063 -0.0621  0.2826 -0.0031
 1467TFB     F221333   0.282   1.832   3.079  0.6080 -0.0020 -0.0968
 1467TFB     F321334   0.305   1.622   3.088 -0.0579  0.2103  0.0612
 1467TFB     F421335   0.222   1.725   2.890 -0.1048 -0.0283 -0.0738
 1468TFB      B21336   4.538   3.500   4.932 -0.3448  0.1676  0.4880
 1468TFB     F121337   4.527   3.609   4.845 -0.2490  0.3397 -0.0235
 1468TFB     F221338   4.497   3.539   5.058 -0.1075 -0.0119  0.1908
 1468TFB     F321339   4.452   3.394   4.896 -0.7655  0.7081 -0.1648
 1468TFB     F421340   4.672   3.462   4.944 -0.0204  0.0685  0.0763
 1469TFB      B21341   1.917   5.701   1.696 -0.3841 -0.0271  0.2878
 1469TFB     F121342   1.919   5.636   1.570 -0.1294 -0.5387  0.2370
 1469TFB     F221343   1.796   5.765   1.722  0.0516 -0.7611  0.2065
 1469TFB     F321344   1.942   5.610   1.796 -0.6532 -0.2615  0.2967
 1469TFB     F421345   2.024   5.788   1.691  0.0441 -0.1686  0.0103
 1470TFB      B21346   6.190   2.360   1.187 -0.6676 -0.2300  0.0419
 1470TFB     F121347   6.127   2.478   1.169 -0.0309  0.1776 -0.5621
 1470TFB     F221348   6.120   2.285   1.280  0.8982 -0.2238 -0.0103
 1470TFB     F321349   6.171   2.290   1.059  0.4380  0.5526 -0.4066
 1470TFB     F421350   6.326   2.386   1.214 -0.3104  0.3004 -0.0616
 1471TFB      B21351   4.303   5.619   3.065 -0.1960 -0.4149 -1.1123
 1471TFB     F121352   4.269   5.753   3.054 -0.1030 -0.1258 -0.4467
 1471TFB     F221353   4.200   5.537   3.019  0.5226 -0.7188  0.4227
 1471TFB     F321354   4.420   5.602   2.991  0.1205 -0.2019 -0.8443
 1471TFB     F421355   4.322   5.604   3.200  0.6370 -0.4681 -0.6061
 1472TFB      B21356   5.312   6.001   4.125  0.4054 -0.1263  0.0114
 1472TFB     F121357   5.433   5.929   4.103 -0.4823 -0.5691 -0.1453
 1472TFB     F221358   5.336   6.106   4.219  0.3633  0.1429 -0.1388
 1472TFB     F321359   5.263   6.048   4.009  0.1209 -0.2349 -0.2264
 1472TFB     F421360   5.217   5.914   4.174  0.3537  0.5269 -0.3160
 1473TFB      B21361   1.435   4.811   3.214 -0.5293  0.0699  0.9556
 1473TFB     F121362   1.518   4.802   3.325  0.1753 -0.4448  0.2899
 1473TFB     F221363   1.468   4.916   3.122  0.2905 -0.2255  0.4423
 1473TFB     F321364   1.458   4.693   3.140  0.2106  0.3203  0.0947
 1473TFB     F421365   1.303   4.833   3.242  0.6429 -0.1917 -0.2352
 1474TFB      B21366   4.354   4.899   4.566 -0.1525 -0.1803 -0.0215
 1474TFB     F121367   4.485   4.863   4.598 -0.4974  0.5327  0.0611
 1474TFB     F221368   4.336   4.958   4.437  0.5124  0.3498  0.4992
 1474TFB     F321369   4.268   4.782   4.578  0.4899 -0.4945 -0.6279
 1474TFB     F421370   4.304   4.996   4.652  0.0010 -0.1237 -0.0541
 1475TFB      B21371   5.250   1.542   0.865 -1.3316  0.1275 -0.3019
 1475TFB     F121372   5.346   1.588   0.963 -0.3576  0.4746 -0.3704
 1475TFB     F221373   5.139   1.617   0.853 -0.2995 -0.0862 -0.6521
 1475TFB     F321374   5.313   1.536   0.739  0.3388  0.1090 -0.0729
 1475TFB     F421375   5.213   1.415   0.905  0.0183  0.3460  0.0157
 1476TFB      B21376   0.580   5.733   0.586 -0.7863  0.3873 -0.3599
 1476TFB     F121377   0.592   5.665   0.705 -0.5646  0.1904 -0.0826
 1476TFB     F221378   0.574   5.866   0.616  0.0774  0.2571 -0.0662
 1476TFB     F321379   0.693   5.708   0.515 -0.0009  0.4543  0.3151
 1476TFB     F421380   0.473   5.685   0.513  0.0355  0.1329 -0.1165
 1477TFB      B21381   0.177   3.877   3.213 -0.1385 -0.0746 -0.7512
 1477TFB     F121382   0.046   3.919   3.193 -0.0614 -0.0843  0.1684
 1477TFB     F221383   0.242   3.944   3.311  0.2383 -0.4472  0.7906
 1477TFB     F321384   0.181   3.746   3.256 -0.2205 -0.2504  0.1174
 1477TFB     F421385   0.238   3.890   3.090  0.0920  0.1134 -0.1629
 1478TFB      B21386   0.750   3.205   5.485  0.1921  0.1785  0.7584
 1478TFB     F121387   0.887   3.251   5.477 -0.5852  0.1664 -0.1935
 1478TFB     F221388   0.724   3.129   5.374  0.4945  0.0407 -0.2782
 1478TFB     F321389   0.729   3.117   5.592  0.1665  0.4490  0.3365
 1478TFB     F421390   0.659   3.305   5.500  0.0199  0.2008 -0.1060
 1479TFB      B21391   1.882   2.542   3.055 -0.3036 -0.0298  0.2229
 1479TFB     F121392   2.022   2.548   3.061  0.2060 -0.0871  0.3360
 1479TFB     F221393   1.818   2.647   3.118 -0.0013 -0.3179  0.7141
 1479TFB     F321394   1.856   2.544   2.913 -0.1893  0.1037 -0.1789
 1479TFB     F421395   1.847   2.418   3.103  0.1199  0.1735  0.1714
 1480TFB      B21396   0.218   0.630   0.511  0.6399 -0.0898  0.6077
 1480TFB     F121397   0.149   0.744   0.482  0.5856  0.4989  0.1076
 1480TFB     F221398   0.160   0.574   0.626 -0.1923 -0.4734  0.4951
 1480TFB     F321399   0.202   0.542   0.404  0.0000  0.0013  0.0599
 1480TFB     F421400   0.349   0.662   0.528 -0.3587 -0.3216 -0.1499
 1481TFB      B21401   0.548   6.081   2.737 -0.0858  0.7216 -0.7177
 1481TFB     F121402   0.413   6.124   2.718  0.4697 -0.3903  0.2157
 1481TFB     F221403   0.585   6.071   2.873 -0.9318  0.7954  0.0943
 1481TFB     F321404   0.550   5.947   2.697  0.1160 -0.2820 -0.1438
 1481TFB     F421405   0.644   6.147   2.656 -0.2561  0.1756  0.0739
 1482TFB      B21406   3.181   6.340   2.479 -0.7570 -0.3823  0.1030
 1482TFB     F121407   3.052   6.320   2.447 -0.3710  0.0061  0.1311
 1482TFB     F221408   3.249   6.229   2.446  0.6689 -0.3311 -0.0815
 1482TFB     F321409   3.230   6.455   2.418  0.1686 -0.4387 -0.0980
 1482TFB     F421410   3.195   6.360   2.615 -0.2131 -0.2015 -0.3165
 1483TFB      B21411   5.164   3.218   2.105 -0.0461  0.6775  0.0259
 1483TFB     F121412   5.273   3.267   2.037 -0.1018  0.0598 -0.7120
 1483TFB     F221413   5.184   3.265   2.233  0.0880 -0.2480  0.3609
 1483TFB     F321414   5.046   3.266   2.056  0.8096 -0.0540 -0.0567
 1483TFB     F421415   5.159   3.076   2.096 -0.3589  0.2538 -0.0741
 1484TFB      B21416   4.131   2.476   5.992 -0.0453 -0.4170 -0.4023
 1484TFB     F121417   4.246   2.465   5.912  0.2220 -0.5328 -0.6147
 1484TFB     F221418   4.032   2.564   5.942 -0.3057  0.0201 -0.6906
 1484TFB     F321419   4.086   2.348   5.998  0.1996  0.3145  0.0156
 1484TFB     F421420   4.162   2.504   6.126 -0.2099 -0.7839 -0.4847
 1485TFB      B21421   0.668   4.328   2.736  0.7257 -0.6407 -0.8011
 1485TFB     F121422   0.648   4.461   2.760  0.6613 -0.2393  0.0914
 1485TFB     F221423   0.553   4.247   2.761 -0.2893 -0.1962  0.0752
 1485TFB     F321424   0.697   4.312   2.602 -0.1318 -0.0401 -0.0044
 1485TFB     F421425   0.764   4.275   2.812 -0.4272  0.0533 -0.1134
 1486TFB      B21426   0.762   0.790   2.757 -0.1181 -0.0544 -0.5789
 1486TFB     F121427   0.779   0.807   2.901 -0.1787 -0.2359 -0.0612
 1486TFB     F221428   0.696   0.674   2.727  0.5927  0.5113 -0.3144
 1486TFB     F321429   0.689   0.890   2.718  0.2233  0.0882  0.0710
 1486TFB     F421430   0.882   0.813   2.699  0.4365  0.2351  0.2213
 1487TFB      B21431   4.188   4.905   5.094 -0.0772 -0.5425 -0.2404
 1487TFB     F121432   4.211   4.765   5.092 -0.1219  0.1278  0.4111
 1487TFB     F221433   4.052   4.932   5.083  0.6519  0.1699  0.8070
 1487TFB     F321434   4.229   4.955   5.216  0.4267 -0.0747  0.1629
 1487TFB     F421435   4.261   4.963   4.990  0.1251  0.4765 -0.2000
 1488TFB      B21436   1.615   2.925   4.797  0.2870  0.6327 -0.1427
 1488TFB     F121437   1.656   2.987   4.683 -0.7547  0.5467 -0.3773
 1488TFB     F221438   1.480   2.908   4.784  0.5428  0.1198 -0.2415
 1488TFB     F321439   1.673   2.800   4.803 -0.4045 -0.3396 -0.1722
 1488TFB     F421440   1.658   3.005   4.903 -0.5372  0.6453  0.0608
 1489TFB      B21441   1.553   5.698   5.723  0.1472 -0.2263 -0.0667
 1489TFB     F121442   1.427   5.637   5.727 -0.4986  0.3929 -0.2696
 1489TFB     F221443   1.638   5.631   5.639  0.2899  0.0173 -0.3754
 1489TFB     F321444   1.521   5.822   5.669 -0.5861 -0.5455 -0.0932
 1489TFB     F421445   1.612   5.733   5.842  0.5313 -0.3088 -0.3279
 1490TFB      B21446   5.504   1.346   3.213 -0.7681 -0.0104 -0.6425
 1490TFB     F121447   5.519   1.239   3.126  0.6510 -0.0958 -0.1311
 1490TFB     F221448   5.457   1.300   3.336  0.4069 -0.0940  0.4547
 1490TFB     F321449   5.627   1.401   3.241  0.1503 -0.2354  0.0850
 1490TFB     F421450   5.416   1.443   3.162 -0.1906  0.4663 -0.2511
 1491TFB      B21451   6.272   5.605   0.741 -0.7648 -0.1435  0.4566
 1491TFB     F121452   6.413   5.589   0.748 -0.2007 -0.2931 -0.1623
 1491TFB     F221453   6.238   5.722   0.808  0.0323 -0.1228  0.3222
 1491TFB     F321454   6.226   5.610   0.614  0.1095 -0.4485  0.5923
 1491TFB     F421455   6.198   5.494   0.789  0.3084 -0.0741 -0.3862
 1492TFB      B21456   1.693   3.149   2.193 -0.4391 -0.7367  0.8376
 1492TFB     F121457   1.779   3.124   2.303 -0.2823  0.0508 -0.0531
 1492TFB     F221458   1.567   3.089   2.196 -0.2309  0.3795 -0.5196
 1492TFB     F321459   1.678   3.287   2.176 -0.2803  0.3589 -0.2994
 1492TFB     F421460   1.755   3.118   2.071 -0.0546  0.3831  0.1667
 1493TFB      B21461   4.096   4.918   1.174 -0.5275  0.3590  0.2541
 1493TFB     F121462   4.162   4.896   1.059 -0.0804 -0.5540 -0.3947
 1493TFB     F221463   4.157   5.009   1.261 -0.2247  0.2014 -0.0620
 1493TFB     F321464   3.970   4.974   1.155  0.0537  0.3062 -0.0314
 1493TFB     F421465   4.075   4.796   1.237  0.0512 -0.1552 -0.0282
 1494TFB      B21466   3.057   0.878   3.779  0.6159 -0.2354  0.3373
 1494TFB     F121467   3.043   0.991   3.696  0.0173 -0.2534 -0.0615
 1494TFB     F221468   3.103   0.784   3.697 -0.2293  0.0816 -0.1194
 1494TFB     F321469   3.149   0.913   3.876 -0.2970 -0.2288  0.0486
 1494TFB     F421470   2.935   0.843   3.837 -0.0072 -0.3695  0.1565
 1495TFB      B21471   1.759   1.828   3.207 -0.3849 -0.2013  0.1942
 1495TFB     F121472   1.863   1.788   3.122  0.0212 -0.4922  0.1150
 1495TFB     F221473   1.803   1.897   3.316  0.1762 -0.2892  0.1427
 1495TFB     F321474   1.668   1.903   3.136 -0.5810 -0.1540 -0.0039
 1495TFB     F421475   1.691   1.717   3.253  0.3668 -0.1253 -0.1184
 1496TFB      B21476   1.236   1.443   3.741 -0.1431  0.0869 -0.2010
 1496TFB     F121477   1.361   1.453   3.805 -0.1612 -0.1631 -0.2588
 1496TFB     F221478   1.186   1.310   3.734 -0.0720  0.9234  0.6213
 1496TFB     F321479   1.153   1.523   3.816  0.1676  0.4559  0.0711
 1496TFB     F421480   1.250   1.505   3.616 -0.0693 -0.5516 -0.0274
 1497TFB      B21481   4.429   3.378   0.196  0.5822  0.5246  0.0723
 1497TFB     F121482   4.406   3.513   0.180 -0.4688  0.3665 -0.2551
 1497TFB     F221483   4.301   3.330   0.227 -0.3026 -0.0301 -0.0196
 1497TFB     F321484   4.480   3.329   0.080 -0.3034  0.6295 -0.1829
 1497TFB     F421485   4.515   3.363   0.301  0.2233 -0.1878 -0.1524
 1498TFB      B21486   4.824   4.010   6.124 -0.7409 -0.3898  0.0122
 1498TFB     F121487   4.902   4.023   6.005 -0.3507  0.1063  0.1388
 1498TFB     F221488   4.770   4.130   6.167  0.1394  0.0272 -0.3794
 1498TFB     F321489   4.718   3.918   6.087 -0.2543 -0.5231  0.1433
 1498TFB     F421490   4.903   3.944   6.219  0.7553 -0.1503 -0.0246
 1499TFB      B21491   3.105   1.895   4.608  0.2645 -0.3051  1.1212
 1499TFB     F121492   3.148   1.810   4.509  0.1818  0.3005 -0.1579
 1499TFB     F221493   3.053   1.819   4.708 -0.5666 -0.3535 -0.1727
 1499TFB     F321494   3.210   1.962   4.659 -0.0097 -0.0619 -0.1124
 1499TFB     F421495   3.001   1.971   4.556 -0.2653 -0.2381 -0.7056
 1500TFB      B21496   1.532   1.413   5.166 -0.0642  0.2086  0.3266
 1500TFB     F121497   1.599   1.540   5.145  0.1238 -0.0540  0.2694
 1500TFB     F221498   1.444   1.384   5.065 -0.4533  0.7291  0.0534
 1500TFB     F321499   1.622   1.305   5.171 -0.3012 -0.2956  0.2409
 1500TFB     F421500   1.470   1.427   5.292  0.2004  0.1312  0.2579
 1501TFB      B21501   4.989   1.777   0.429 -0.0973 -0.5683  0.0833
 1501TFB     F121502   4.963   1.834   0.309  0.2987 -0.3197  0.2683
 1501TFB     F221503   5.061   1.658   0.411 -0.4478 -0.0151  0.2215
 1501TFB     F321504   5.065   1.864   0.499  0.2587 -0.3400  0.1149
 1501TFB     F421505   4.870   1.743   0.488 -0.6406  0.2139  0.1811
 1502TFB      B21506   2.621   4.408   0.025  0.3709 -0.1851  0.2185
 1502TFB     F121507   2.632   4.541   0.006  0.8081  0.4252  0.0765
 1502TFB     F221508   2.492   4.357   0.010  0.7375  0.2207 -0.1654
 1502TFB     F321509   2.700   4.354  -0.068  0.4578 -0.2080  0.3472
 1502TFB     F421510   2.674   4.382   0.143  0.2248 -0.5982 -0.2020
 1503TFB      B21511   5.156   2.565   3.775 -0.6792  0.0719 -0.7677
 1503TFB     F121512   5.214   2.680   3.714  0.0297  0.0898  0.3079
 1503TFB     F221513   5.056   2.613   3.854 -0.5338  0.2333 -0.1499
 1503TFB     F321514   5.097   2.476   3.686 -0.3198 -0.3392  0.4139
 1503TFB     F421515   5.260   2.507   3.856 -0.2549 -0.6387 -0.4913
 1504TFB      B21516   0.931   2.671   5.987 -0.1683 -0.7051 -0.2329
 1504TFB     F121517   1.019   2.700   5.883  0.5067 -0.3074 -0.2828
 1504TFB     F221518   0.958   2.746   6.097  0.0547 -0.1497  0.2240
 1504TFB     F321519   0.805   2.695   5.937  0.0694  0.0859  0.1832
 1504TFB     F421520   0.939   2.535   6.013  0.2054  0.3499  0.2188
 1505TFB      B21521   0.226   0.771   4.247  0.1570  0.1315  0.0985
 1505TFB     F121522   0.298   0.863   4.330  0.0641 -0.0393  0.4178
 1505TFB     F221523   0.313   0.658   4.222 -0.2191 -0.2636  0.2671
 1505TFB     F321524   0.105   0.729   4.309  0.4514 -0.3239  0.2469
 1505TFB     F421525   0.204   0.826   4.127 -0.2791  0.3815 -0.3379
 1506TFB      B21526   4.909   6.330   3.800 -0.4517  0.1452  0.0436
 1506TFB     F121527   4.828   6.440   3.763 -0.0197  0.6267 -0.4048
 1506TFB     F221528   5.037   6.364   3.774  0.1853  0.0219  0.5637
 1506TFB     F321529   4.875   6.310   3.937 -0.2333  0.6322  0.1676
 1506TFB     F421530   4.880   6.212   3.724 -0.5551  0.2901  0.2303
 1507TFB      B21531   2.548   3.738   0.167 -0.2483 -0.3874  0.6955
 1507TFB     F121532   2.418   3.718   0.196 -0.3163  0.3922 -0.4348
 1507TFB     F221533   2.628   3.728   0.286  0.2973  0.8970 -0.0511
 1507TFB     F321534   2.590   3.644   0.080 -0.2164  0.0057 -0.8163
 1507TFB     F421535   2.559   3.872   0.128 -0.1351 -0.5540 -0.5841
 1508TFB      B21536   2.856   2.033   2.015  0.4080  0.6238 -0.1061
 1508TFB     F121537   2.914   2.022   1.888  0.6034  0.3113 -0.1673
 1508TFB     F221538   2.957   1.988   2.101 -0.1004  0.0654 -0.1845
 1508TFB     F321539   2.827   2.166   2.039  0.2831  0.5980 -0.0589
 1508TFB     F421540   2.742   1.957   2.018 -0.4470 -0.2549 -0.1781
 1509TFB      B21541   2.615   3.078   2.361 -0.2294  0.5375 -0.6935
 1509TFB     F121542   2.552   3.156   2.266 -0.1329  0.9184  0.0260
 1509TFB     F221543   2.724   3.025   2.306 -0.0343 -0.6155  0.2000
 1509TFB     F321544   2.657   3.157   2.470 -0.0973  0.0190  0.0678
 1509TFB     F421545   2.533   2.984   2.414  0.2316 -0.1116 -1.1564
 1510TFB      B21546   4.287   2.085   3.048  0.1203  0.2788  0.5073
 1510TFB     F121547   4.280   2.146   3.175  0.6198  0.4626  0.4679
 1510TFB     F221548   4.411   2.011   3.044 -0.7718  0.2517 -0.0964
 1510TFB     F321549   4.183   1.995   3.037  0.0695 -0.3182 -0.1760
 1510TFB     F421550   4.268   2.181   2.947 -0.9343  0.2795  0.6588
 1511TFB      B21551   1.226   6.164   1.179 -0.0543  0.8407  0.2879
 1511TFB     F121552   1.276   6.094   1.287  0.3918 -0.3873 -0.2340
 1511TFB     F221553   1.199   6.069   1.075 -0.0082 -0.3988  0.2585
 1511TFB     F321554   1.111   6.234   1.208 -0.4882 -0.1832  0.1990
 1511TFB     F421555   1.318   6.255   1.136 -0.2932 -0.2812  0.1079
 1512TFB      B21556   5.565   1.900   6.155  0.2221 -0.6221  0.4464
 1512TFB     F121557   5.500   1.779   6.134 -0.0954 -0.0386 -0.2209
 1512TFB     F221558   5.695   1.880   6.108  0.0752 -0.8203  0.3952
 1512TFB     F321559   5.504   2.009   6.084  0.2534 -0.3070  0.5749
 1512TFB     F421560   5.571   1.929   6.290  0.1743  0.1618  0.5249
 1513TFB      B21561   3.765   4.853   4.150 -0.0093  0.0856  0.5587
 1513TFB     F121562   3.628   4.873   4.164  0.6198  0.0338 -0.1645
 1513TFB     F221563   3.794   4.718   4.141 -0.1876 -0.1959 -0.8610
 1513TFB     F321564   3.819   4.935   4.053  0.2762  0.3341 -0.2409
 1513TFB     F421565   3.837   4.883   4.263 -0.5728  0.1032  0.4485
 1514TFB      B21566   4.937   3.624   2.784  0.1906  0.3128  0.5667
 1514TFB     F121567   4.887   3.555   2.892  0.1117 -0.0393  0.4122
 1514TFB     F221568   4.986   3.744   2.830  0.6698 -0.5279  0.4806
 1514TFB     F321569   5.028   3.550   2.712  0.4999  0.3109 -0.1667
 1514TFB     F421570   4.830   3.676   2.713  0.1920  0.6590 -0.3904
 1515TFB      B21571   6.242   0.287   2.372 -0.4867 -0.2476  0.0848
 1515TFB     F121572   6.230   0.168   2.306  0.1454 -0.1987 -1.2017
 1515TFB     F221573   6.295   0.384   2.282 -0.0876 -0.5967 -0.3252
 1515TFB     F321574   6.116   0.336   2.396  0.3032 -0.0294  0.0450
 1515TFB     F421575   6.312   0.278   2.490 -0.1085  0.1913  0.4450
 1516TFB      B21576   0.873   3.215   1.014 -0.1065  0.1763  0.5428
 1516TFB     F121577   0.877   3.082   1.057 -0.8214 -0.1399 -0.1894
 1516TFB     F221578   0.964   3.296   1.084 -0.0547  0.3281 -0.3328
 1516TFB     F321579   0.908   3.220   0.881 -0.0685  0.1895  0.0885
 1516TFB     F421580   0.745   3.266   1.014  0.4561  0.6232 -0.7369
 1517TFB      B21581   1.161   5.671   2.130  0.3089 -0.9015  0.0935
 1517TFB     F121582   1.028   5.634   2.129  0.2900 -0.1582  0.3401
 1517TFB     F221583   1.183   5.780   2.045  0.2041  0.5199  0.2120
 1517TFB     F321584   1.184   5.702   2.261  0.5177  0.4744 -0.0064
 1517TFB     F421585   1.249   5.562   2.102  0.3674 -0.1651  0.2294
 1518TFB      B21586   3.919   4.188   4.009  0.3999  0.6971 -0.3534
 1518TFB     F121587   3.947   4.221   3.874  0.0585  0.6010 -0.4095
 1518TFB     F221588   3.801   4.245   4.059 -0.4683 -0.1737  0.1234
 1518TFB     F321589   3.902   4.054   4.029  0.0060 -0.1045  0.0500
 1518TFB     F421590   4.012   4.242   4.095 -0.6904 -0.0724 -0.2055
 1519TFB      B21591   1.820   3.394   5.753 -0.1046  0.5249  0.1856
 1519TFB     F121592   1.911   3.421   5.646 -0.0234 -0.2950 -0.3272
 1519TFB     F221593   1.865   3.284   5.814 -0.2610  0.2176  0.1488
 1519TFB     F321594   1.828   3.490   5.849  0.0166 -0.3002 -0.7188
 1519TFB     F421595   1.696   3.370   5.706  0.0841 -0.4227 -0.1383
 1520TFB      B21596   3.899   2.986   2.009  0.0740 -0.3763  0.7064
 1520TFB     F121597   3.962   3.048   1.901 -0.4621 -0.4870 -0.0666
 1520TFB     F221598   3.817   2.885   1.971  0.3027 -0.8976  0.0801
 1520TFB     F321599   3.991   2.932   2.096  0.7099  0.0248  0.1790
 1520TFB     F421600   3.827   3.080   2.075 -0.1943 -0.4706 -0.4312
 1521TFB      B21601   1.256   1.829   2.564 -0.0996  0.1876 -1.0168
 1521TFB     F121602   1.142   1.884   2.629  0.1865  0.0955 -0.4507
 1521TFB     F221603   1.229   1.844   2.435  0.3607 -0.3098  0.1932
 1521TFB     F321604   1.375   1.894   2.587  0.2027  0.1356  0.0506
 1521TFB     F421605   1.269   1.696   2.588 -0.0088  0.1448 -0.3125
 1522TFB      B21606   5.121   1.525   5.970  0.4258  0.0702  0.6008
 1522TFB     F121607   5.168   1.516   5.831  0.2875  0.0309 -0.0395
 1522TFB     F221608   5.231   1.502   6.055  0.0590  0.0357 -0.2508
 1522TFB     F321609   5.076   1.652   5.999 -0.1075  0.2435  0.4408
 1522TFB     F421610   5.015   1.440   5.998 -0.6201 -0.3973 -0.0229
 1523TFB      B21611   2.024   2.459   4.912  0.1272 -0.8691  0.1925
 1523TFB     F121612   2.039   2.562   5.008  1.1443 -0.2213  0.2399
 1523TFB     F221613   1.909   2.485   4.836 -0.4474 -0.3529  0.1725
 1523TFB     F321614   2.135   2.451   4.821 -0.5998  0.1508 -0.3466
 1523TFB     F421615   2.004   2.335   4.971 -0.2178  0.3753 -0.3720
 1524TFB      B21616   1.466   0.011   5.438  0.0574 -0.5984 -0.2068
 1524TFB     F121617   1.547   0.002   5.552 -0.3030  0.0542 -0.0758
 1524TFB     F221618   1.352  -0.058   5.451 -0.4132 -0.0232 -0.1817
 1524TFB     F321619   1.451   0.151   5.417  0.0839  0.4557  0.3290
 1524TFB     F421620   1.533  -0.048   5.331 -0.2999  0.0086  0.0822
 1525TFB      B21621   4.018   4.689   5.826  0.9222  0.0458  0.1875
 1525TFB     F121622   4.137   4.625   5.795  0.0067  0.3696 -0.1625
 1525TFB     F221623   4.026   4.787   5.930 -0.1275 -0.3215  0.2923
 1525TFB     F321624   3.960   4.750   5.718 -0.4003 -0.2331 -0.2312
 1525TFB     F421625   3.938   4.585   5.871  0.0716 -0.2262 -0.2710
 1526TFB      B21626   4.512   3.476   1.827 -0.2288 -0.6431 -0.1089
 1526TFB     F121627   4.397   3.507   1.763 -0.6241 -0.2861  0.3605
 1526TFB     F221628   4.550   3.353   1.780  0.2226 -0.1078  0.1913
 1526TFB     F321629   4.609   3.567   1.785  0.0982 -0.2112  0.3757
 1526TFB     F421630   4.508   3.488   1.962  0.3547  0.1731  0.0108
 1527TFB      B21631   3.705   6.299   1.786 -0.1930  0.0759 -0.4138
 1527TFB     F121632   3.794   6.313   1.678 -0.3616  1.0143 -0.1012
 1527TFB     F221633   3.767   6.217   1.879 -0.2130  0.1322  0.5728
 1527TFB     F321634   3.685   6.424   1.842  0.3511 -0.4226  0.6127
 1527TFB     F421635   3.582   6.252   1.742 -0.3501  0.5512 -0.3279
 1528TFB      B21636   1.871   3.751   4.154  0.4176 -0.3009 -0.3470
 1528TFB     F121637   1.933   3.841   4.239 -0.5197 -0.3271 -0.1400
 1528TFB     F221638   1.901   3.790   4.022  0.2699 -0.5951  0.0536
 1528TFB     F321639   1.944   3.632   4.155 -0.7270  0.7172  0.5337
 1528TFB     F421640   1.736   3.730   4.184  0.4679 -0.0230 -0.3199
 1529TFB      B21641   1.151   4.988   6.111  0.5674  0.2256 -0.6272
 1529TFB     F121642   1.069   5.092   6.057  0.1980  0.2421 -0.5257
 1529TFB     F221643   1.144   5.000   6.248 -0.4957 -0.4964  0.4697
 1529TFB     F321644   1.092   4.866   6.071 -0.8977  0.1376 -0.0546
 1529TFB     F421645   1.280   4.997   6.065 -0.2517 -0.5199  0.3408
 1530TFB      B21646   5.046   1.101   2.085 -0.2142 -0.6629 -0.2949
 1530TFB     F121647   5.131   0.991   2.076 -0.7133 -0.1561 -0.1899
 1530TFB     F221648   4.926   1.047   2.085  0.1875 -0.6142  0.0845
 1530TFB     F321649   5.062   1.166   2.210  0.0473 -0.3747  0.8391
 1530TFB     F421650   5.066   1.186   1.975 -0.0966 -0.0826 -0.2968
 1531TFB      B21651   2.944   5.215   4.852 -0.3406  0.4006 -0.3965
 1531TFB     F121652   2.833   5.233   4.776  0.2013  0.0129  0.1394
 1531TFB     F221653   3.058   5.256   4.784 -0.0742  0.0667 -0.6804
 1531TFB     F321654   2.933   5.313   4.950  0.6715 -0.2726 -0.1005
 1531TFB     F421655   2.945   5.082   4.901  0.1839  0.0468  0.5993
 1532TFB      B21656   3.233   1.011   5.086 -0.5017  0.0630  0.9130
 1532TFB     F121657   3.306   1.131   5.082 -0.5799  0.0110 -0.0927
 1532TFB     F221658   3.307   0.920   5.171  0.1973 -0.0628 -0.1882
 1532TFB     F321659   3.103   1.037   5.128 -0.1085  0.0996 -0.3518
 1532TFB     F421660   3.229   0.944   4.966 -0.1203 -0.0004  0.7371
 1533TFB      B21661   1.388   4.249   2.621 -1.2285  0.4191 -0.6148
 1533TFB     F121662   1.273   4.211   2.702  0.2315  0.8269 -0.0947
 1533TFB     F221663   1.505   4.255   2.699  0.3137 -0.5771 -0.2562
 1533TFB     F321664   1.411   4.162   2.517  0.2546 -0.4615 -0.5660
 1533TFB     F421665   1.376   4.377   2.576 -0.5798 -0.5805  0.1762
 1534TFB      B21666   5.370   3.356   2.603 -0.0300 -0.6197 -0.4937
 1534TFB     F121667   5.262   3.438   2.636 -0.4497 -0.3871 -0.1011
 1534TFB     F221668   5.465   3.399   2.510 -0.3889  0.0193 -0.8971
 1534TFB     F321669   5.446   3.344   2.721  0.0174  0.3140 -0.0392
 1534TFB     F421670   5.317   3.239   2.549  0.0699 -0.1592  0.5342
 1535TFB      B21671   3.007   6.322   3.541 -0.7296  0.3376 -0.4513
 1535TFB     F121672   3.137   6.378   3.517 -0.5469 -0.2014 -0.2990
 1535TFB     F221673   3.004   6.256   3.665  0.3144 -0.2453 -0.0032
 1535TFB     F321674   2.910   6.421   3.539 -0.0799 -0.0859  0.3597
 1535TFB     F421675   2.979   6.231   3.441 -0.0151  0.1532 -0.0592
 1536TFB      B21676   5.328   0.690   1.941 -0.4800 -0.2571  0.2916
 1536TFB     F121677   5.260   0.755   1.840 -0.1650 -0.4796 -0.2121
 1536TFB     F221678   5.236   0.606   2.006  0.5807  0.7135 -0.2495
 1536TFB     F321679   5.432   0.609   1.895 -0.7050 -0.5577  0.9989
 1536TFB     F421680   5.383   0.779   2.032 -0.8796  0.2255 -0.0874
 1537TFB      B21681   4.631   5.887   5.441  0.1611  0.8516 -0.5221
 1537TFB     F121682   4.646   5.795   5.539  0.0259  0.2282 -0.1914
 1537TFB     F221683   4.583   6.006   5.492 -0.6679 -0.0335 -0.5470
 1537TFB     F321684   4.753   5.905   5.381 -0.1858  0.0942 -0.5341
 1537TFB     F421685   4.533   5.831   5.361 -0.2988  0.3199  0.0769
 1538TFB      B21686   2.592   0.348   0.274 -0.2013  0.1516 -0.2321
 1538TFB     F121687   2.527   0.466   0.263  0.1074  0.2043  0.5822
 1538TFB     F221688   2.731   0.361   0.245  0.0595 -0.5351 -0.4610
 1538TFB     F321689   2.580   0.286   0.389 -0.4736 -0.0730 -0.5131
 1538TFB     F421690   2.530   0.263   0.186  0.5949 -0.1235 -0.1812
 1539TFB      B21691   1.409   5.461   6.205 -0.8131  0.1627 -0.1160
 1539TFB     F121692   1.441   5.568   6.123  0.5034  0.5279  0.5390
 1539TFB     F221693   1.411   5.344   6.123 -0.5640  0.5586  0.2607
 1539TFB     F321694   1.509   5.459   6.290  0.1728  0.3088 -0.0038
 1539TFB     F421695   1.283   5.469   6.258 -0.1236 -0.0675 -0.1620
 1540TFB      B21696   4.966   4.408   4.987 -0.1354  0.3216 -0.0525
 1540TFB     F121697   4.906   4.487   5.077 -0.1673  0.1464 -0.0041
 1540TFB     F221698   4.962   4.473   4.865 -0.3889 -0.0382 -0.0373
 1540TFB     F321699   5.099   4.417   5.020  0.2410 -0.4940  0.1974
 1540TFB     F421700   4.921   4.276   4.981  0.3853 -0.0417 -0.2201
 1541TFB      B21701   5.550   5.949   2.023 -0.2225  0.7278  0.7252
 1541TFB     F121702   5.472   6.026   1.937 -0.0136  0.0506  0.2438
 1541TFB     F221703   5.468   5.864   2.096 -0.7919  0.3459  0.4226
 1541TFB     F321704   5.646   5.877   1.947  0.7154 -0.1312  0.6493
 1541TFB     F421705   5.605   6.035   2.119  0.2416 -0.1231  0.0919
 1542TFB      B21706   4.527   5.820   2.439 -0.1239 -0.6187  0.0987
 1542TFB     F121707   4.490   5.865   2.315 -0.5131  0.2163  0.3191
 1542TFB     F221708   4.570   5.937   2.511  0.4055  0.4840 -0.3371
 1542TFB     F321709   4.413   5.766   2.490  0.2720 -0.0932  0.3624
 1542TFB     F421710   4.609   5.709   2.437 -0.5682  0.4067  0.0528
 1543TFB      B21711   0.990   2.993   3.517  0.0760  0.7764  0.0477
 1543TFB     F121712   1.080   3.058   3.602 -0.3911 -0.1156  0.0384
 1543TFB     F221713   0.951   3.076   3.406  0.1955  0.0744 -0.0751
 1543TFB     F321714   1.059   2.884   3.463 -0.1011  0.0884 -0.2043
 1543TFB     F421715   0.877   2.954   3.586 -0.0005  0.3039 -0.0962
 1544TFB      B21716   5.276   0.939   6.104 -0.0536  0.6001 -0.3165
 1544TFB     F121717   5.185   1.042   6.138  0.1486  0.2939 -0.1873
 1544TFB     F221718   5.400   0.990   6.075  0.5048 -0.1678 -0.3686
 1544TFB     F321719   5.268   0.843   6.205 -0.5436  0.7788 -0.2248
 1544TFB     F421720   5.229   0.877   5.992  0.0243 -0.1386  0.2583
 1545TFB      B21721   2.498   6.262   2.571 -0.9087  0.5045 -0.4133
 1545TFB     F121722   2.634   6.252   2.535 -0.1855  0.4144 -0.0645
 1545TFB     F221723   2.499   6.271   2.701  0.5162  0.2730 -0.1736
 1545TFB     F321724   2.437   6.379   2.528  0.3411  0.4932  0.0819
 1545TFB     F421725   2.419   6.154   2.532  0.6273 -0.4394  0.0551
 1546TFB      B21726   1.888   0.440   4.300  0.0314  0.0654  0.4964
 1546TFB     F121727   1.787   0.466   4.395  0.5060 -0.3596 -0.1028
 1546TFB     F221728   1.951   0.560   4.281  0.3061  0.2250  0.0962
 1546TFB     F321729   1.982   0.357   4.345 -0.5357  0.0025  0.4023
 1546TFB     F421730   1.827   0.399   4.181  0.2105 -0.4951 -0.3919
 1547TFB      B21731   3.000   3.702   0.657  0.1389  0.4724  0.2188
 1547TFB     F121732   2.875   3.711   0.720  0.3919  0.3603  0.6723
 1547TFB     F221733   3.000   3.684   0.523 -0.2050  0.2212  0.3180
 1547TFB     F321734   3.070   3.823   0.675  0.0288  0.1610 -0.1159
 1547TFB     F421735   3.077   3.611   0.727  0.1099 -0.7240 -0.4967
 1548TFB      B21736   4.073   1.927   0.847 -0.0360  0.4312  0.0051
 1548TFB     F121737   4.154   2.006   0.762 -0.4088 -0.0734  0.2168
 1548TFB     F221738   4.142   1.906   0.967 -0.0665  0.5682 -0.3226
 1548TFB     F321739   3.949   1.981   0.858  0.3653  0.1613 -0.4735
 1548TFB     F421740   4.058   1.807   0.781  0.0959  0.1669  0.3230
 1549TFB      B21741   6.079   3.180   0.046 -0.8301 -0.9020  0.3902
 1549TFB     F121742   6.084   3.313   0.003  0.3199 -0.3923 -0.3090
 1549TFB     F221743   6.010   3.192   0.167  0.2731 -0.5661 -0.0617
 1549TFB     F321744   5.996   3.113  -0.052 -0.1493  0.0963  0.1006
 1549TFB     F421745   6.211   3.131   0.055  0.0428  0.3691 -0.0430
 1550TFB      B21746   4.739   2.660   5.547 -0.6568  0.6931 -0.0764
 1550TFB     F121747   4.734   2.725   5.668 -0.4384  0.2280 -0.2783
 1550TFB     F221748   4.857   2.660   5.482  0.4038  0.9825 -0.2600
 1550TFB     F321749   4.711   2.526   5.567 -0.4128 -0.6237  0.3080
 1550TFB     F421750   4.642   2.710   5.455  0.0077 -0.3165 -0.1236
 1551TFB      B21751   0.191   5.038   6.059  0.5180 -0.9186 -0.4651
 1551TFB     F121752   0.156   5.055   6.193  0.1985  0.2116  0.2359
 1551TFB     F221753   0.145   5.146   5.982  0.1205  0.3842 -0.3459
 1551TFB     F321754   0.327   5.026   6.057 -0.0027 -0.1001  0.0122
 1551TFB     F421755   0.154   4.921   5.995  0.2982  0.1704 -0.4257
 1552TFB      B21756   5.694   3.615   1.451  0.4191 -0.2459 -0.7823
 1552TFB     F121757   5.806   3.692   1.475  0.0866 -0.3369 -0.2054
 1552TFB     F221758   5.706   3.512   1.360  0.3340 -0.3387  0.1461
 1552TFB     F321759   5.668   3.536   1.565 -0.1995  0.1521 -0.3965
 1552TFB     F421760   5.579   3.693   1.419 -0.0190 -0.2330 -0.2065
 1553TFB      B21761   2.637   3.228   0.454  0.3169 -0.5301  1.8785
 1553TFB     F121762   2.731   3.274   0.544  0.2594  0.2205 -0.2362
 1553TFB     F221763   2.543   3.155   0.516  0.6197 -0.1054  0.0769
 1553TFB     F321764   2.570   3.332   0.390 -0.8802  0.3603  0.8494
 1553TFB     F421765   2.711   3.161   0.356  0.0048  0.0909 -0.4453
 1554TFB      B21766   5.592   5.840   3.658  0.2708  0.2230 -0.5668
 1554TFB     F121767   5.571   5.948   3.575  0.1657 -0.0012 -0.3559
 1554TFB     F221768   5.728   5.810   3.672  0.3085  0.1412  0.0384
 1554TFB     F321769   5.528   5.873   3.783 -0.6904  0.6076 -0.3233
 1554TFB     F421770   5.522   5.725   3.612 -0.1753 -0.4428  1.0173
 1555TFB      B21771   0.753   6.208   4.399 -0.0855  0.0294 -0.5238
 1555TFB     F121772   0.853   6.107   4.392 -0.6282  0.0392 -0.0932
 1555TFB     F221773   0.646   6.154   4.466  0.9028 -0.1033 -0.1170
 1555TFB     F321774   0.801   6.314   4.468 -0.2079 -0.4699  0.2264
 1555TFB     F421775   0.721   6.243   4.267  0.4281  0.3232  0.5877
 1556TFB      B21776   3.606   0.114   5.745 -0.1059 -0.4661 -0.3063
 1556TFB     F121777   3.608   0.102   5.613  0.1304 -0.4830 -0.3968
 1556TFB     F221778   3.498   0.203   5.770 -0.2056  0.1986  0.6176
 1556TFB     F321779   3.566  -0.005   5.799  0.7693 -0.0199 -0.2482
 1556TFB     F421780   3.721   0.160   5.808 -0.4444 -0.5713  0.0351
 1557TFB      B21781   5.453   1.094   0.673 -0.1313 -0.4933  1.0137
 1557TFB     F121782   5.566   1.014   0.653  0.2611  0.1800 -0.8145
 1557TFB     F221783   5.391   1.121   0.557 -0.1163 -0.3043  0.3980
 1557TFB     F321784   5.372   1.015   0.759  0.2097 -0.2882 -0.1837
 1557TFB     F421785   5.477   1.197   0.759 -0.0890  0.3005  0.2422
 1558TFB      B21786   3.147   0.895   0.425 -0.3729  0.1641  0.4414
 1558TFB     F121787   3.045   0.942   0.513 -0.1545  0.0151  0.0887
 1558TFB     F221788   3.211   0.782   0.488 -0.4561  0.3211 -0.3143
 1558TFB     F321789   3.092   0.854   0.305  0.1472 -0.1413  0.4476
 1558TFB     F421790   3.238   0.999   0.406  0.3702 -0.2806  0.0768
 1559TFB      B21791   2.463   0.713   3.865 -0.5851 -0.0839  0.3564
 1559TFB     F121792   2.598   0.741   3.855 -0.1724  0.1053 -0.4115
 1559TFB     F221793   2.428   0.639   3.749 -0.4324 -0.0005  0.0641
 1559TFB     F321794   2.443   0.628   3.981  0.3446  0.0584 -0.0101
 1559TFB     F421795   2.393   0.831   3.897  0.1481 -0.2751 -0.5595
 1560TFB      B21796   5.688   2.047   2.847 -0.4606 -0.2813  0.4103
 1560TFB     F121797   5.577   1.967   2.819  0.0483  0.0003  0.2121
 1560TFB     F221798   5.680   2.066   2.984  0.5418  0.8537  0.4535
 1560TFB     F321799   5.809   1.994   2.804  0.7209 -0.5053  0.4682
 1560TFB     F421800   5.678   2.168   2.783 -0.2569  0.0515  0.3252
 1561TFB      B21801   3.450   0.411   3.647 -0.3827  0.0071  0.0304
 1561TFB     F121802   3.488   0.477   3.755 -0.0970  0.6855 -0.0701
 1561TFB     F221803   3.501   0.283   3.654  0.7025  0.8886  0.2099
 1561TFB     F321804   3.312   0.410   3.639  0.1073  0.0675 -0.0204
 1561TFB     F421805   3.499   0.462   3.519  0.0421 -0.1406 -0.2944
 1562TFB      B21806   0.392   5.773   6.200  0.2067  0.1136  0.1224
 1562TFB     F121807   0.261   5.733   6.228 -0.3878  0.3064 -0.0087
 1562TFB     F221808   0.481   5.713   6.285  0.0171  0.1509 -0.0019
 1562TFB     F321809   0.430   5.718   6.080  0.7146 -0.2343  0.0265
 1562TFB     F421810   0.405   5.906   6.180 -0.1532  0.1276 -0.0287
 1563TFB      B21811   5.947   1.918   3.959  0.6192  1.1633 -0.2585
 1563TFB     F121812   5.927   1.805   3.875 -0.5180  0.1094 -0.0069
 1563TFB     F221813   6.054   1.989   3.937  0.0322  0.0253  0.3017
 1563TFB     F321814   5.834   1.996   3.958  0.3413 -0.3403  0.6824
 1563TFB     F421815   5.956   1.870   4.087  0.2139  0.1105 -0.1957
 1564TFB      B21816   6.327   0.562   5.417  0.0780 -0.4122 -0.4379
 1564TFB     F121817   6.254   0.611   5.524 -0.3360 -0.5996  0.2669
 1564TFB     F221818   6.462   0.588   5.435  0.0262  0.0395  0.0069
 1564TFB     F321819   6.310   0.430   5.398  0.0969 -0.0302  0.7645
 1564TFB     F421820   6.278   0.637   5.306  0.0014 -0.5080  0.2896
 1565TFB      B21821   1.209   1.526   0.310 -0.1927 -0.2020  0.1587
 1565TFB     F121822   1.095   1.490   0.380  0.0690  0.1323 -0.1437
 1565TFB     F221823   1.324   1.491   0.371  0.0803 -0.7075 -0.4277
 1565TFB     F321824   1.207   1.465   0.189  0.0371 -0.3310  0.0457
 1565TFB     F421825   1.202   1.666   0.297 -0.1906 -0.2658 -0.0980
 1566TFB      B21826   2.507   2.522   2.710 -0.4753 -0.5870 -0.0319
 1566TFB     F121827   2.388   2.527   2.784  0.0127 -0.1717 -0.2972
 1566TFB     F221828   2.577   2.641   2.726  0.5248  0.4193  0.3102
 1566TFB     F321829   2.598   2.421   2.746 -0.0297 -0.3805  0.2989
 1566TFB     F421830   2.470   2.508   2.577  0.0818  0.2928  0.4742
 1567TFB      B21831   1.919   4.403   6.281  0.2444  0.0662 -0.3011
 1567TFB     F121832   2.018   4.314   6.279  0.4800 -0.1805  0.8411
 1567TFB     F221833   1.798   4.338   6.267  0.2048 -0.3132  0.1562
 1567TFB     F321834   1.909   4.477   6.402 -0.0188 -0.3361  0.3180
 1567TFB     F421835   1.935   4.493   6.180 -0.0795 -0.2440 -0.4326
 1568TFB      B21836   0.171   2.991   5.656  0.4190  0.1421 -0.2983
 1568TFB     F121837   0.055   2.984   5.738  0.1920 -0.6548 -0.0613
 1568TFB     F221838   0.144   2.958   5.523 -0.2870 -0.3987 -0.2907
 1568TFB     F321839   0.220   3.120   5.662 -0.8724 -0.0443 -0.1881
 1568TFB     F421840   0.271   2.907   5.710 -0.0394  0.4101 -0.2158
 1569TFB      B21841   3.070   1.508   0.046  0.2764 -0.1096 -0.4593
 1569TFB     F121842   2.941   1.560   0.066  0.3658 -0.4235  0.0083
 1569TFB     F221843   3.146   1.499   0.160  0.5591  0.0475 -0.2477
 1569TFB     F321844   3.065   1.376   0.000  0.8222 -0.6417 -0.2632
 1569TFB     F421845   3.129   1.583  -0.053 -0.0959 -0.4288  0.1462
 1570TFB      B21846   5.669   0.207   3.000 -0.0373 -0.6128 -0.7997
 1570TFB     F121847   5.729   0.273   2.890  0.3608 -0.1195 -0.1918
 1570TFB     F221848   5.534   0.220   2.953 -0.4172 -0.5637  0.0580
 1570TFB     F321849   5.704   0.084   3.044  0.2097  0.5869 -0.0421
 1570TFB     F421850   5.667   0.309   3.096  0.2193 -0.0281 -0.1664
 1571TFB      B21851   2.404   1.470   0.576  0.6390 -0.1640  0.0660
 1571TFB     F121852   2.467   1.466   0.703  0.1726  0.3569  0.2390
 1571TFB     F221853   2.397   1.345   0.514 -0.2068  0.2656 -0.4668
 1571TFB     F321854   2.277   1.516   0.598 -0.1924  0.5324 -0.1464
 1571TFB     F421855   2.476   1.538   0.493  0.5795 -0.5058 -0.2377
 1572TFB      B21856   3.563   4.409   5.383  0.3046  0.2231 -0.9096
 1572TFB     F121857   3.560   4.553   5.380 -0.2559 -0.2278  0.6898
 1572TFB     F221858   3.440   4.347   5.367 -0.2173 -0.4693  0.0319
 1572TFB     F321859   3.643   4.362   5.287  0.1512  0.0251  0.0451
 1572TFB     F421860   3.601   4.369   5.514 -0.2474 -0.6471  0.2153
 1573TFB      B21861   5.074   2.252   4.128  0.2368 -0.9290 -0.5749
 1573TFB     F121862   5.177   2.173   4.166  0.5902 -0.0715  0.3295
 1573TFB     F221863   4.953   2.191   4.141 -0.0083 -0.1353 -0.2506
 1573TFB     F321864   5.086   2.349   4.224  0.5198 -0.2930 -0.0523
 1573TFB     F421865   5.091   2.306   3.995 -0.3920  0.5035  0.0557
 1574TFB      B21866   5.536   5.412   5.971  0.0483 -1.2807  0.2260
 1574TFB     F121867   5.494   5.544   5.998  0.1028 -0.3842  0.6746
 1574TFB     F221868   5.461   5.326   6.056  0.0119  0.2421 -0.2768
 1574TFB     F321869   5.500   5.389   5.843 -0.4404 -0.0283  0.1050
 1574TFB     F421870   5.672   5.393   5.991  0.5614  0.1820 -0.1983
 1575TFB      B21871   4.322   5.270   3.715 -0.0861  0.0021  0.2345
 1575TFB     F121872   4.456   5.312   3.693  0.0520 -0.3602 -0.7593
 1575TFB     F221873   4.307   5.191   3.833 -0.1777  0.3059 -0.5721
 1575TFB     F321874   4.236   5.387   3.725  0.0193 -0.0844  0.0615
 1575TFB     F421875   4.279   5.200   3.602  0.2724 -0.5189  0.1486
 1576TFB      B21876   1.742   3.967   1.974  0.2224  0.2554  0.1283
 1576TFB     F121877   1.653   3.912   1.881 -0.3695 -0.0147 -0.0611
 1576TFB     F221878   1.840   3.879   1.986  0.1282  0.0053 -0.6399
 1576TFB     F321879   1.782   4.097   1.940 -0.2327 -0.3913  0.6710
 1576TFB     F421880   1.669   3.963   2.094  0.2933 -0.1957  0.2372
 1577TFB      B21881   5.746   4.658   0.306  0.3199  0.1704 -0.1585
 1577TFB     F121882   5.747   4.576   0.191 -0.0867  0.0835  0.2942
 1577TFB     F221883   5.747   4.791   0.266  0.0117  0.5250  0.1400
 1577TFB     F321884   5.635   4.633   0.382  0.2980 -0.1976  0.0699
 1577TFB     F421885   5.867   4.633   0.373 -0.1751 -0.0391 -0.3131
 1578TFB      B21886   5.271   1.049   4.566 -0.2616 -0.7487 -0.5868
 1578TFB     F121887   5.323   1.163   4.517  0.3317  0.0117 -0.7127
 1578TFB     F221888   5.289   0.953   4.470 -0.2440 -0.2154  0.1239
 1578TFB     F321889   5.342   0.999   4.672 -0.2898  0.3093 -0.1133
 1578TFB     F421890   5.138   1.058   4.594  0.1296 -0.0822 -0.4165
 1579TFB      B21891   1.812   5.435   3.338 -0.4296  0.6997  0.4628
 1579TFB     F121892   1.916   5.401   3.262 -0.3872 -0.1810 -0.2421
 1579TFB     F221893   1.832   5.569   3.374  0.2647 -0.5099 -0.5514
 1579TFB     F321894   1.697   5.410   3.258  0.2529 -0.2933  0.1483
 1579TFB     F421895   1.820   5.347   3.441  0.1608  0.0416  0.0668
 1580TFB      B21896   1.744   0.929   2.389  0.0525  1.0387  0.5348
 1580TFB     F121897   1.875   0.872   2.410 -0.0069  0.4767 -0.3305
 1580TFB     F221898   1.696   1.008   2.483  0.0075 -0.0842  0.5471
 1580TFB     F321899   1.752   0.993   2.269  0.1074 -0.2183  1.0776
 1580TFB     F421900   1.660   0.823   2.383  0.4805  0.0793  0.2525
 1581TFB      B21901   1.140   1.637   4.542  0.3515  0.1398  0.4702
 1581TFB     F121902   1.065   1.684   4.651  0.1238 -0.0993  0.0815
 1581TFB     F221903   1.169   1.500   4.559 -0.0811  0.1881 -0.1026
 1581TFB     F321904   1.084   1.648   4.417  0.0690 -0.6346 -0.1868
 1581TFB     F421905   1.253   1.709   4.540  0.1504 -0.5226 -0.1225
 1582TFB      B21906   5.444   3.689   3.068  0.1397 -0.7389  0.0782
 1582TFB     F121907   5.368   3.625   2.973  0.7985  0.0880  0.4671
 1582TFB     F221908   5.575   3.702   3.017  0.1419  0.2013  0.2492
 1582TFB     F321909   5.392   3.816   3.083 -0.6345  0.1070 -0.2587
 1582TFB     F421910   5.448   3.612   3.183 -0.2118  0.1696  0.4107
 1583TFB      B21911   5.826   4.854   2.692  0.2409 -0.2182  0.1676
 1583TFB     F121912   5.856   4.790   2.807  0.1751  0.2371 -0.0996
 1583TFB     F221913   5.878   4.980   2.676  0.1874 -0.3287  0.8026
 1583TFB     F321914   5.871   4.769   2.594 -0.2646  0.0429 -0.5234
 1583TFB     F421915   5.687   4.870   2.674  0.5303  0.1886  0.3065
 1584TFB      B21916   4.987   0.931   2.768  0.1425 -0.0631 -0.7919
 1584TFB     F121917   4.967   1.069   2.750  0.0638  0.0267  0.6963
 1584TFB     F221918   5.053   0.915   2.887 -0.1618  0.1260  0.1391
 1584TFB     F321919   4.878   0.854   2.760  0.1698 -0.2784  0.0003
 1584TFB     F421920   5.069   0.890   2.668  0.0435 -0.4148 -0.3036
 1585TFB      B21921   2.288   3.505   3.924  0.0732  0.5974  0.2857
 1585TFB     F121922   2.222   3.618   3.882 -0.6722  0.0578  0.2901
 1585TFB     F221923   2.397   3.486   3.841  0.1549  0.2055  0.3947
 1585TFB     F321924   2.349   3.540   4.043 -0.4198  0.0703  0.3097
 1585TFB     F421925   2.195   3.396   3.944 -0.0456 -0.0266 -0.1820
 1586TFB      B21926   2.248   0.984   5.561 -0.6263  0.6297  1.0124
 1586TFB     F121927   2.273   1.088   5.475 -1.0168  0.5435 -0.5362
 1586TFB     F221928   2.114   0.954   5.537  0.2537 -0.4563 -0.5327
 1586TFB     F321929   2.326   0.868   5.521 -0.1188 -0.0643 -0.3632
 1586TFB     F421930   2.275   1.016   5.692  0.5674 -0.5373 -0.0266
 1587TFB      B21931   1.993   2.389   1.388  0.0067 -0.5848  0.1927
 1587TFB     F121932   1.913   2.499   1.378 -0.0189 -0.5500 -0.2267
 1587TFB     F221933   1.962   2.307   1.276 -0.5002  0.4277 -0.4102
 1587TFB     F321934   2.127   2.426   1.371 -0.2528  0.4283  0.2024
 1587TFB     F421935   1.964   2.329   1.515  0.2749  0.2298 -0.3407
 1588TFB      B21936   4.791   1.592   2.372  1.0890  0.2152  0.7180
 1588TFB     F121937   4.864   1.491   2.423 -0.4619 -0.4981 -0.1720
 1588TFB     F221938   4.744   1.552   2.241  0.2902  0.3111  0.1184
 1588TFB     F321939   4.672   1.601   2.441 -0.0414 -0.0019 -0.0773
 1588TFB     F421940   4.840   1.718   2.381 -0.3738 -0.5757  0.4755
 1589TFB      B21941   3.090   4.009   3.921 -0.3660  0.4865  0.6011
 1589TFB     F121942   3.078   3.884   3.967 -1.5523 -0.1815  0.0292
 1589TFB     F221943   3.202   3.998   3.827 -0.0492 -0.3216  0.5138
 1589TFB     F321944   2.974   4.023   3.840 -0.2207 -0.2525 -0.5129
 1589TFB     F421945   3.102   4.101   4.027  0.3012  0.2160  0.0719
 1590TFB      B21946   0.866   5.011   2.299 -0.4832 -0.1469  0.4682
 1590TFB     F121947   0.797   5.119   2.363 -0.1225  0.4996  0.1350
 1590TFB     F221948   0.939   4.941   2.396 -0.0489  0.3204  0.1195
 1590TFB     F321949   0.774   4.932   2.234  0.2912 -1.2705 -0.0670
 1590TFB     F421950   0.953   5.058   2.201 -0.0057 -0.3284  0.0322
 1591TFB      B21951   4.144   0.556   0.939 -0.6614  0.1459  0.0190
 1591TFB     F121952   4.104   0.601   1.068 -0.1675  0.7482  0.3175
 1591TFB     F221953   4.281   0.533   0.952  0.2866  0.9723 -0.1690
 1591TFB     F321954   4.097   0.427   0.912 -0.4637  0.2287 -0.0801
 1591TFB     F421955   4.106   0.639   0.836 -0.7486 -0.5776 -0.1660
 1592TFB      B21956   5.670   3.527   5.840 -0.0210  0.0714 -0.0897
 1592TFB     F121957   5.575   3.602   5.775 -0.7810  0.2964 -0.2048
 1592TFB     F221958   5.787   3.601   5.854  0.0171  0.3304  0.5615
 1592TFB     F321959   5.624   3.478   5.961  0.2932  0.3356 -0.0375
 1592TFB     F421960   5.703   3.421   5.761  0.4151  0.0544  0.5961
 1593TFB      B21961   1.007   5.847   0.097  0.1142 -0.2487  0.4516
 1593TFB     F121962   0.917   5.747   0.066 -0.3400 -0.2280  0.0617
 1593TFB     F221963   1.133   5.797   0.091  0.3618  0.6602  0.2572
 1593TFB     F321964   1.002   5.956   0.000  0.2473 -0.3373  0.7608
 1593TFB     F421965   0.982   5.898   0.221  0.3090 -0.2170  0.1491
 1594TFB      B21966   0.192   5.761   2.510  0.6300  0.5337  0.8186
 1594TFB     F121967   0.213   5.886   2.554 -0.3166 -0.3934 -0.0492
 1594TFB     F221968   0.243   5.735   2.379 -0.1026  0.1421 -0.7583
 1594TFB     F321969   0.265   5.662   2.590 -0.6660  0.2134 -0.0779
 1594TFB     F421970   0.052   5.738   2.508 -0.3335  0.4341 -0.1627
 1595TFB      B21971   2.734   6.136   0.013  0.4757  0.3366 -0.4385
 1595TFB     F121972   2.759   6.028   0.102 -0.2486 -0.0400  0.1939
 1595TFB     F221973   2.832   6.229   0.025 -0.0885 -0.0612  0.4882
 1595TFB     F321974   2.736   6.085  -0.115 -0.5561 -0.1262  0.2553
 1595TFB     F421975   2.607   6.198   0.039 -0.3867  0.5783  0.4127
 1596TFB      B21976   1.814   0.294   1.345 -0.0121  0.2699  0.1051
 1596TFB     F121977   1.724   0.195   1.348 -0.5825  0.1323  0.5856
 1596TFB     F221978   1.932   0.218   1.374 -0.1587 -0.5422 -0.7103
 1596TFB     F321979   1.830   0.357   1.220  0.2097  0.6225 -0.3470
 1596TFB     F421980   1.783   0.388   1.438 -0.1247  0.6039 -0.2393
 1597TFB      B21981   4.232   0.120   6.042 -0.0716 -0.8110 -0.2654
 1597TFB     F121982   4.352   0.121   5.966  0.0387 -0.0492 -0.2508
 1597TFB     F221983   4.148   0.211   5.988 -0.3748 -0.0704  0.4321
 1597TFB     F321984   4.186  -0.008   6.044  0.0704  0.1266 -0.3878
 1597TFB     F421985   4.252   0.163   6.175 -0.1534  0.2103  0.7239
 1598TFB      B21986   5.158   5.236   4.210  0.1326 -0.1858 -0.1359
 1598TFB     F121987   5.170   5.142   4.307 -0.2494 -0.4283 -0.3035
 1598TFB     F221988   5.095   5.347   4.257 -0.6148 -0.2296 -0.3873
 1598TFB     F321989   5.279   5.269   4.159  0.1720  0.2466  0.0171
 1598TFB     F421990   5.077   5.178   4.108  0.4778  0.1331 -0.2716
 1599TFB      B21991   4.987   2.822   1.540  0.3480 -0.7700 -0.1134
 1599TFB     F121992   5.017   2.750   1.424  0.1675  1.4605 -0.1596
 1599TFB     F221993   4.851   2.836   1.571 -0.0524  0.4464 -0.2003
 1599TFB     F321994   5.039   2.757   1.655 -0.3195  0.0274  0.0187
 1599TFB     F421995   5.043   2.947   1.540 -0.5705  0.3317 -0.3585
 1600TFB      B21996   3.122   4.188   6.035  0.2917 -0.5154  0.0582
 1600TFB     F121997   3.098   4.324   6.058  0.8361 -0.0049 -0.0610
 1600TFB     F221998   3.023   4.113   5.975  0.0633 -0.4843 -0.1768
 1600TFB     F321999   3.223   4.181   5.939 -0.5785  0.2188  0.2943
 1600TFB     F422000   3.151   4.129   6.160  0.0269 -0.6501  0.0348
 1601TFB      B22001   0.310   6.014   4.792  0.6098  0.4055  0.3388
 1601TFB     F122002   0.348   6.091   4.682 -0.4011 -0.0709 -0.0820
 1601TFB     F222003   0.398   6.031   4.892 -0.7657  0.1327  0.0554
 1601TFB     F322004   0.188   6.066   4.829 -0.2459 -0.3972 -0.3807
 1601TFB     F422005   0.294   5.884   4.762 -0.2032 -0.2561  0.1684
 1602TFB      B22006   5.938   0.502   4.161 -0.5735  0.7194  0.3941
 1602TFB     F122007   6.025   0.493   4.053 -0.1822 -0.0463 -0.5020
 1602TFB     F222008   6.010   0.508   4.285  0.4644  0.3789  0.2452
 1602TFB     F322009   5.870   0.625   4.155  0.3296  0.0452  0.0534
 1602TFB     F422010   5.858   0.388   4.165  0.3084 -0.4290  0.0991
 1603TFB      B22011   3.094   1.647   2.399  0.6172  0.6491 -0.2778
 1603TFB     F122012   3.031   1.652   2.526 -0.3703  0.0129 -0.1134
 1603TFB     F222013   3.210   1.563   2.417  0.6286 -0.3675 -0.1780
 1603TFB     F322014   3.019   1.567   2.308 -0.1153 -0.0690  0.2740
 1603TFB     F422015   3.133   1.772   2.352 -0.4347 -0.0594  0.3464
 1604TFB      B22016   3.963   2.737   0.596 -0.6707 -0.7547 -0.3896
 1604TFB     F122017   4.010   2.731   0.727  0.7192 -0.0537 -0.3644
 1604TFB     F222018   3.987   2.866   0.555  0.7618 -0.0962  0.0335
 1604TFB     F322019   4.048   2.652   0.521  0.5599  0.2820  0.1501
 1604TFB     F422020   3.831   2.695   0.585 -0.0054 -0.0783  0.2283
 1605TFB      B22021   4.666   1.286   3.257  0.0120 -0.5322  0.4244
 1605TFB     F122022   4.767   1.198   3.207  0.4347  0.0034  0.0891
 1605TFB     F222023   4.690   1.417   3.223 -0.4150 -0.1676 -0.3947
 1605TFB     F322024   4.542   1.253   3.220 -0.2528 -0.1251 -0.1051
 1605TFB     F422025   4.676   1.260   3.396 -0.5067  0.6125  0.3493
 1606TFB      B22026   5.602   4.220   1.517 -0.1626 -0.2521  0.0782
 1606TFB     F122027   5.610   4.120   1.610  0.1569  0.2913  0.2086
 1606TFB     F222028   5.538   4.341   1.570 -0.0882  0.1460 -0.4754
 1606TFB     F322029   5.726   4.256   1.461  0.1734  0.4704 -0.1216
 1606TFB     F422030   5.522   4.172   1.410  0.3074 -0.0633  0.4645
 1607TFB      B22031   2.762   3.102   4.000  0.3555  0.6656  0.7101
 1607TFB     F122032   2.825   3.165   4.111  0.4175 -0.2781 -0.2401
 1607TFB     F222033   2.701   2.988   4.053 -0.0098 -0.0783  0.1138
 1607TFB     F322034   2.666   3.193   3.949 -0.0518 -0.0819  0.4008
 1607TFB     F422035   2.852   3.059   3.894 -0.5336  0.0077 -0.5164
 1608TFB      B22036   4.992   3.429   1.257 -0.8177  0.7457 -0.1964
 1608TFB     F122037   5.022   3.567   1.261 -0.3174 -0.1364 -0.0301
 1608TFB     F222038   5.082   3.363   1.346  0.5364 -0.1584  0.3469
 1608TFB     F322039   4.868   3.384   1.303  0.5162  0.0455 -0.0092
 1608TFB     F422040   5.023   3.373   1.135  0.6543 -0.1939 -0.2133
 1609TFB      B22041   3.472   4.498   1.792 -0.2378 -0.6014  0.4475
 1609TFB     F122042   3.414   4.388   1.743  0.3521 -0.0426 -0.1763
 1609TFB     F222043   3.611   4.499   1.798 -0.4875  0.3230 -0.1772
 1609TFB     F322044   3.428   4.604   1.703 -0.6829 -0.3222  0.1919
 1609TFB     F422045   3.418   4.524   1.915 -0.0722  0.3099  0.5891
 1610TFB      B22046   0.529   3.477   4.082 -0.3193 -0.1437 -0.2940
 1610TFB     F122047   0.644   3.405   4.114 -0.2593 -0.4379 -0.6310
 1610TFB     F222048   0.544   3.539   3.958 -0.1649  0.1784 -0.1730
 1610TFB     F322049   0.421   3.389   4.068  0.1136  0.2993 -0.5648
 1610TFB     F422050   0.492   3.560   4.182  0.2116 -0.2757 -0.0041
 1611TFB      B22051   3.846   0.536   4.734  0.6561 -0.5154 -0.4167
 1611TFB     F122052   3.936   0.497   4.834 -0.1262 -0.0715  0.6799
 1611TFB     F222053   3.838   0.428   4.648 -0.1618  0.2286 -0.0040
 1611TFB     F322054   3.715   0.563   4.770  0.8039  0.2294 -0.4410
 1611TFB     F422055   3.904   0.656   4.683  0.4742  0.2190 -0.0913
 1612TFB      B22056   3.378   2.541   0.575 -1.2697 -0.8934 -0.1041
 1612TFB     F122057   3.268   2.612   0.521  0.1192  0.4056 -0.0022
 1612TFB     F222058   3.441   2.621   0.668 -0.1851 -0.0784  0.1524
 1612TFB     F322059   3.318   2.427   0.624 -0.3596  0.1208  0.2647
 1612TFB     F422060   3.466   2.514   0.469 -0.2481  0.6553  0.3948
 1613TFB      B22061   2.740   2.554   0.592  0.4654  0.4258  0.4375
 1613TFB     F122062   2.808   2.674   0.626  0.0519 -0.2251  0.0017
 1613TFB     F222063   2.682   2.499   0.702 -0.8037  0.7640  0.4028
 1613TFB     F322064   2.636   2.582   0.494 -0.5797 -0.2173 -0.3344
 1613TFB     F422065   2.830   2.458   0.544 -0.0587  0.1703 -0.0439
 1614TFB      B22066   2.137   4.429   4.218  0.0992  0.3604  0.1032
 1614TFB     F122067   2.137   4.439   4.362  0.5062 -0.3054 -0.0021
 1614TFB     F222068   2.229   4.520   4.172 -0.3965  0.0599 -0.3478
 1614TFB     F322069   2.158   4.307   4.162  0.3229  0.0596  0.1531
 1614TFB     F422070   2.010   4.473   4.177  0.0290 -0.4460 -0.3376
 1615TFB      B22071   0.465   2.261   3.047 -0.4864 -0.6882  0.1667
 1615TFB     F122072   0.520   2.295   2.930  0.1716  0.5480  0.0300
 1615TFB     F222073   0.544   2.162   3.089 -0.0703 -0.2425 -0.1647
 1615TFB     F322074   0.474   2.375   3.124  0.4613 -0.1572 -0.3097
 1615TFB     F422075   0.336   2.216   3.029 -0.3237  0.5627  0.1849
 1616TFB      B22076   0.973   4.623   1.167  0.2255  0.5302  0.1815
 1616TFB     F122077   1.105   4.618   1.128  0.1837 -0.5797 -0.2943
 1616TFB     F222078   0.884   4.610   1.067 -0.4050 -0.4618  0.1041
 1616TFB     F322079   0.952   4.514   1.259  0.4109 -0.3273  0.3471
 1616TFB     F422080   0.957   4.740   1.233 -0.0918 -0.3266 -0.5144
 1617TFB      B22081   3.752   4.674   2.291 -0.1726 -1.1042 -0.1182
 1617TFB     F122082   3.687   4.567   2.233  0.2970  0.4694  0.2102
 1617TFB     F222083   3.682   4.790   2.258  0.0506  1.0627 -0.0405
 1617TFB     F322084   3.756   4.663   2.427  0.2966  0.0856 -0.4952
 1617TFB     F422085   3.877   4.681   2.240 -0.5293 -0.1816 -0.7563
 1618TFB      B22086   4.430   5.424   5.150 -0.1461  0.0914 -0.6627
 1618TFB     F122087   4.330   5.424   5.066 -0.4261 -0.3661  0.7557
 1618TFB     F222088   4.481   5.550   5.131  0.0119 -0.1671 -0.3518
 1618TFB     F322089   4.379   5.404   5.281  0.5316  0.5006 -0.1455
 1618TFB     F422090   4.504   5.314   5.117 -0.8724  0.0763 -0.1762
 1619TFB      B22091   3.093   3.587   4.315  0.0222 -0.4522  0.4685
 1619TFB     F122092   3.190   3.518   4.383 -0.2685  0.0699  0.1403
 1619TFB     F222093   2.961   3.546   4.350  0.2884  0.3728  0.1976
 1619TFB     F322094   3.103   3.718   4.351 -0.0814  0.4181  0.3081
 1619TFB     F422095   3.100   3.574   4.177  0.0765 -0.0608 -0.0652
 1620TFB      B22096   4.148   5.817   6.230  0.8151 -0.0807 -0.2233
 1620TFB     F122097   4.246   5.726   6.256 -0.2020  0.1799 -0.3833
 1620TFB     F222098   4.035   5.768   6.160  0.1221 -0.4538 -0.0631
 1620TFB     F322099   4.093   5.846   6.355  0.5430 -0.5563  0.5182
 1620TFB     F422100   4.210   5.937   6.185  1.0225  0.1223 -0.3734
 1621TFB      B22101   3.430   4.955   5.705  0.3776 -0.1437  0.2223
 1621TFB     F122102   3.355   5.036   5.619 -0.1155  0.4838 -0.2520
 1621TFB     F222103   3.555   4.916   5.658  0.3532 -0.0784 -0.2833
 1621TFB     F322104   3.457   5.035   5.815  0.2613 -0.2049  0.5517
 1621TFB     F422105   3.357   4.844   5.735  0.0561 -0.2869 -0.2254
 1622TFB      B22106   0.833   1.617   3.162  0.0654  0.2412 -0.7991
 1622TFB     F122107   0.830   1.525   3.055 -0.1921  0.5200 -0.1873
 1622TFB     F222108   0.833   1.543   3.281  0.0671 -0.2172  0.2444
 1622TFB     F322109   0.938   1.698   3.157 -0.0489 -0.1193 -0.3105
 1622TFB     F422110   0.719   1.699   3.165  0.2327  0.2066  0.1225
 1623TFB      B22111   2.156   0.002   0.073  0.2303  0.2449  0.4639
 1623TFB     F122112   2.031  -0.029   0.118 -0.2634  0.0793 -0.4321
 1623TFB     F222113   2.136   0.110  -0.019  0.2181 -0.7015 -0.1525
 1623TFB     F322114   2.230   0.045   0.182 -0.3643  0.1857  0.7178
 1623TFB     F422115   2.206  -0.111   0.007 -0.4378 -0.3852  0.5535
 1624TFB      B22116   2.704   2.615   5.699  0.5632  0.1238  0.1129
 1624TFB     F122117   2.610   2.674   5.619  0.5709  0.0316 -0.6378
 1624TFB     F222118   2.829   2.680   5.676 -0.4766  0.1157 -0.2117
 1624TFB     F322119   2.655   2.651   5.828  0.3417  0.6280  0.0494
 1624TFB     F422120   2.695   2.475   5.681 -0.1782  0.3527 -0.6007
 1625TFB      B22121   5.397   5.691   4.726 -0.1373  0.0397 -0.3938
 1625TFB     F122122   5.265   5.661   4.700 -0.0278  0.3106  0.4486
 1625TFB     F222123   5.408   5.827   4.755 -0.3523  0.4068 -0.3654
 1625TFB     F322124   5.440   5.614   4.833  0.1242 -0.0663 -0.6501
 1625TFB     F422125   5.469   5.663   4.602 -0.1628 -0.1071  0.2764
 1626TFB      B22126   5.616   4.124   4.787 -0.3787  0.0998 -0.4460
 1626TFB     F122127   5.639   4.257   4.749  0.0483  0.0901 -0.2995
 1626TFB     F222128   5.730   4.055   4.766  0.2224  0.1779 -0.2452
 1626TFB     F322129   5.563   4.115   4.916  0.0141 -0.7305 -0.1359
 1626TFB     F422130   5.519   4.059   4.703 -0.1205  0.0183 -1.2324
 1627TFB      B22131   5.008   4.332   2.737 -0.2864  0.1472 -0.7505
 1627TFB     F122132   5.004   4.297   2.599  0.5807 -0.0795 -0.4417
 1627TFB     F222133   4.887   4.398   2.775 -0.4279  0.6926 -0.0470
 1627TFB     F322134   5.003   4.207   2.800  0.1847  0.0169  0.4292
 1627TFB     F422135   5.127   4.405   2.761 -0.1831 -0.1996  0.1863
 1628TFB      B22136   4.781   1.926   3.259 -0.2447 -0.3476  0.2337
 1628TFB     F122137   4.819   1.850   3.371  0.8480  0.1691 -0.2279
 1628TFB     F222138   4.877   1.914   3.155  0.1160 -0.3354  0.2325
 1628TFB     F322139   4.654   1.889   3.214 -0.0124  0.6875 -0.5859
 1628TFB     F422140   4.764   2.061   3.294 -0.1881 -0.1272 -0.4023
 1629TFB      B22141   1.628   0.092   2.421 -0.0605  0.5372 -0.2428
 1629TFB     F122142   1.580   0.059   2.297  0.0777 -0.3438 -0.5784
 1629TFB     F222143   1.738   0.008   2.453 -0.2285  0.7305 -0.1454
 1629TFB     F322144   1.651   0.226   2.440  0.0428 -1.2085  0.8147
 1629TFB     F422145   1.531   0.063   2.517 -0.3704  0.2420 -0.2201
 1630TFB      B22146   0.965   5.408   1.237 -0.2748 -0.1955 -0.2701
 1630TFB     F122147   1.058   5.502   1.187 -0.5381  0.1885  0.1708
 1630TFB     F222148   1.034   5.300   1.286  0.4642 -0.2655  0.4784
 1630TFB     F322149   0.907   5.466   1.348 -0.5323 -0.1824  0.1426
 1630TFB     F422150   0.861   5.377   1.161  0.1218 -0.2595 -0.1252
 1631TFB      B22151   5.259   1.671   2.773  0.7147  0.8611  0.8524
 1631TFB     F122152   5.223   1.548   2.710 -0.0841  0.2744  0.3040
 1631TFB     F222153   5.146   1.705   2.853  0.1756 -0.1032 -0.1591
 1631TFB     F322154   5.379   1.655   2.839  0.0967 -0.1617  0.2101
 1631TFB     F422155   5.262   1.772   2.678  0.3850  0.3250  0.2350
 1632TFB      B22156   4.171   5.197   2.634 -0.7774  0.2754  0.1304
 1632TFB     F122157   4.176   5.099   2.538 -0.6762  0.1378  0.6675
 1632TFB     F222158   4.251   5.171   2.748  0.0318 -0.1378  0.6520
 1632TFB     F322159   4.204   5.316   2.576  0.1081 -0.2995 -0.5375
 1632TFB     F422160   4.046   5.189   2.691  0.0395  0.0685 -0.1018
 1633TFB      B22161   3.748   0.832   2.114 -0.3622 -0.1200 -0.4577
 1633TFB     F122162   3.846   0.751   2.067  0.3631 -0.0007 -0.2800
 1633TFB     F222163   3.633   0.754   2.104 -0.2307  0.0097 -0.2066
 1633TFB     F322164   3.763   0.874   2.244 -0.2556 -0.0750 -0.0986
 1633TFB     F422165   3.733   0.932   2.029 -0.3898  0.2652  0.5413
 1634TFB      B22166   2.208   3.071   6.191 -0.6940  0.0425  0.1840
 1634TFB     F122167   2.277   2.950   6.216  0.1976 -0.4967 -0.9628
 1634TFB     F222168   2.284   3.168   6.251 -0.4354  0.6604 -0.4532
 1634TFB     F322169   2.211   3.088   6.043  0.5756  0.1985  0.3102
 1634TFB     F422170   2.089   3.070   6.258 -0.2319  0.1372  0.0764
 1635TFB      B22171   5.829   6.216   1.022 -0.3076 -0.7738  1.0858
 1635TFB     F122172   5.755   6.109   1.050  0.5343  0.6405 -0.5445
 1635TFB     F222173   5.753   6.323   0.973  0.4721  0.2749 -0.5241
 1635TFB     F322174   5.880   6.250   1.148  0.5826  0.2616  0.4858
 1635TFB     F422175   5.945   6.181   0.945 -0.3473  0.2233 -0.0362
 1636TFB      B22176   4.655   3.087   2.168  0.3449 -0.6671 -0.0834
 1636TFB     F122177   4.627   3.022   2.056 -0.2144 -0.4086  0.3852
 1636TFB     F222178   4.582   3.207   2.155 -0.1923  0.1705 -0.4113
 1636TFB     F322179   4.616   3.006   2.278 -0.3743  0.0897  0.4574
 1636TFB     F422180   4.786   3.130   2.169 -0.0382  0.1191  0.5645
 1637TFB      B22181   4.848   0.428   2.709 -0.0255 -0.3674 -0.1554
 1637TFB     F122182   4.925   0.318   2.733  0.1552 -0.0241  0.4775
 1637TFB     F222183   4.884   0.500   2.596  0.3078  0.1014  0.5111
 1637TFB     F322184   4.716   0.383   2.680  0.2816 -0.0685  0.0669
 1637TFB     F422185   4.838   0.503   2.824  0.0247  0.2567 -0.2307
 1638TFB      B22186   5.145   0.260   6.216 -0.3701 -0.3969 -0.1185
 1638TFB     F122187   5.168   0.390   6.209  0.6680 -0.1279  0.4099
 1638TFB     F222188   5.256   0.188   6.262  0.1009 -0.2791  0.1398
 1638TFB     F322189   5.053   0.244   6.315 -0.1499 -0.6324 -0.1971
 1638TFB     F422190   5.099   0.209   6.099  0.0598 -0.2323  0.0650
 1639TFB      B22191   3.859   5.088   1.792  0.6481 -0.1460 -0.4191
 1639TFB     F122192   3.940   5.076   1.908 -1.1908 -0.1464 -0.6056
 1639TFB     F222193   3.941   5.090   1.681 -0.7654 -0.0891 -0.0859
 1639TFB     F322194   3.772   4.986   1.792 -0.5595  0.0951  0.3216
 1639TFB     F422195   3.789   5.213   1.804 -0.2656  0.4853  0.6046
 1640TFB      B22196   5.942   1.158   1.929  0.5121  0.8866 -0.2793
 1640TFB     F122197   5.933   1.294   1.899  0.0724  0.2947 -0.5302
 1640TFB     F222198   5.908   1.147   2.064 -0.7345  0.0564  0.6216
 1640TFB     F322199   5.865   1.076   1.847  0.4883  0.0579 -0.3983
 1640TFB     F422200   6.072   1.120   1.925 -0.2219  0.1458 -0.1781
 1641TFB      B22201   6.185   4.463   6.156  0.5103  0.4386 -0.5999
 1641TFB     F122202   6.146   4.368   6.248 -0.1370  0.2174 -0.5442
 1641TFB     F222203   6.319   4.467   6.136  0.3565 -0.5297  0.1708
 1641TFB     F322204   6.133   4.429   6.029  0.3181  0.4206 -0.4294
 1641TFB     F422205   6.139   4.589   6.190  0.2519 -0.0681  0.3859
 1642TFB      B22206   3.574   2.921   2.528  0.4704  0.0541 -0.8780
 1642TFB     F122207   3.544   2.781   2.535 -0.0141 -0.2176  0.1498
 1642TFB     F222208   3.451   2.984   2.547 -0.8488 -0.2707 -0.0855
 1642TFB     F322209   3.662   2.956   2.629  0.0293  0.3325 -0.4927
 1642TFB     F422210   3.609   2.963   2.403 -0.2708 -0.4437  0.1055
 1643TFB      B22211   3.572   3.443   0.527  0.3696  0.0471  0.5110
 1643TFB     F122212   3.697   3.485   0.545  0.3012 -0.1211 -0.2644
 1643TFB     F222213   3.503   3.527   0.443 -0.0446  0.1950 -0.2245
 1643TFB     F322214   3.563   3.312   0.476  0.7374 -0.6282  0.2957
 1643TFB     F422215   3.494   3.442   0.640  0.0357 -0.3380  0.5994
 1644TFB      B22216   5.657   3.812   0.167 -0.7357 -1.0396 -0.3591
 1644TFB     F122217   5.631   3.813   0.031 -0.4342  0.1446 -0.2496
 1644TFB     F222218   5.792   3.795   0.192 -0.6139  0.1263  0.1259
 1644TFB     F322219   5.621   3.936   0.219  0.5769 -0.5218  0.0863
 1644TFB     F422220   5.584   3.708   0.229 -0.1586  0.3608  0.2971
 1645TFB      B22221   6.102   6.091   5.799  0.5122  0.6370 -0.2718
 1645TFB     F122222   6.152   6.202   5.732 -0.1015 -0.4863  0.1273
 1645TFB     F222223   6.199   5.991   5.803 -0.2863  0.5447 -0.2706
 1645TFB     F322224   6.077   6.111   5.932 -0.3422 -0.0078 -0.5629
 1645TFB     F422225   6.002   6.036   5.742  0.0118  0.2367 -0.0015
 1646TFB      B22226   2.316   6.079   4.445 -0.3999 -0.5308  0.0355
 1646TFB     F122227   2.311   5.983   4.543  0.2608  0.4044  0.4350
 1646TFB     F222228   2.197   6.141   4.436  0.3323  0.0223  0.5057
 1646TFB     F322229   2.414   6.182   4.481  0.3949  0.3014  0.1690
 1646TFB     F422230   2.330   6.018   4.322  0.4563  0.0141  0.3288
 1647TFB      B22231   3.580   0.304   2.300  0.7687 -0.2397 -0.1787
 1647TFB     F122232   3.514   0.306   2.175  0.0474 -0.4161  0.7046
 1647TFB     F222233   3.616   0.176   2.336 -0.6052  0.7676  0.0470
 1647TFB     F322234   3.701   0.369   2.294  0.4785  0.0284 -0.2307
 1647TFB     F422235   3.500   0.350   2.404  0.1351 -0.3360  0.0903
 1648TFB      B22236   0.876   6.237   5.276 -0.0382  0.2950  0.7769
 1648TFB     F122237   0.893   6.147   5.171 -0.1307  0.0764 -0.0017
 1648TFB     F222238   0.756   6.205   5.335  0.0457 -0.2948 -0.5818
 1648TFB     F322239   0.978   6.212   5.368 -0.1825  0.2947  0.6234
 1648TFB     F422240   0.878   6.370   5.232  0.2373  0.2654  0.0691
 1649TFB      B22241   0.055   2.222   2.275  0.1244 -0.2923 -0.3039
 1649TFB     F122242  -0.057   2.174   2.217  0.7432  0.0439  0.1507
 1649TFB     F222243   0.062   2.359   2.294 -0.3584 -0.6143  0.3373
 1649TFB     F322244   0.078   2.169   2.403 -0.0374  0.3918 -0.1136
 1649TFB     F422245   0.159   2.189   2.188  0.0828 -0.5160  0.1990
 1650TFB      B22246   1.209   2.925   2.883  0.1963 -0.0981  0.6846
 1650TFB     F122247   1.157   2.823   2.960 -0.1443  0.4247  0.1318
 1650TFB     F222248   1.106   2.984   2.805  0.1871 -0.8495 -0.0302
 1650TFB     F322249   1.255   3.026   2.964  0.1392  0.2498  0.4705
 1650TFB     F422250   1.322   2.876   2.812  0.1794 -0.4816 -0.3623
 1651TFB      B22251   4.292   2.650   1.815  0.1080 -1.2192 -0.0061
 1651TFB     F122252   4.308   2.641   1.952  0.0204  0.0827  0.6901
 1651TFB     F222253   4.374   2.747   1.759 -0.0141  0.1536  0.3272
 1651TFB     F322254   4.308   2.533   1.761 -0.0903  0.1870 -0.2082
 1651TFB     F422255   4.155   2.674   1.790  0.2606 -0.1079  0.3982
 1652TFB      B22256   5.062   4.997   4.676 -0.0928 -0.7467  0.0094
 1652TFB     F122257   5.151   4.963   4.580 -0.3271  0.6791 -0.6169
 1652TFB     F222258   4.959   5.075   4.618 -0.4526 -0.3166 -0.2198
 1652TFB     F322259   5.018   4.874   4.725 -0.2951  0.4020  0.1129
 1652TFB     F422260   5.123   5.064   4.788  0.0576 -0.3015  0.2086
 1653TFB      B22261   5.164   4.273   6.185  0.1011 -0.2248  1.1623
 1653TFB     F122262   5.163   4.169   6.283 -0.0193  0.3340 -0.5336
 1653TFB     F222263   5.065   4.354   6.216 -0.4309  0.4588 -0.6337
 1653TFB     F322264   5.290   4.334   6.195  0.0013  0.7899 -0.7028
 1653TFB     F422265   5.147   4.211   6.059  0.3972  0.2350  0.4690
 1654TFB      B22266   4.768   1.941   6.012 -0.1205 -0.0428  0.5803
 1654TFB     F122267   4.766   1.817   5.957 -0.4885 -0.2495  0.2510
 1654TFB     F222268   4.652   2.010   6.000 -0.2092 -0.3825 -0.2683
 1654TFB     F322269   4.792   1.914   6.145  0.0751 -0.1382 -0.3432
 1654TFB     F422270   4.874   2.008   5.952 -0.5085 -0.4993 -0.0263
 1655TFB      B22271   2.491   5.248   1.852 -0.3253 -0.3674 -0.2371
 1655TFB     F122272   2.403   5.191   1.943 -0.7200 -0.0000  0.3236
 1655TFB     F222273   2.544   5.357   1.904 -0.1568 -0.2137  0.1644
 1655TFB     F322274   2.588   5.151   1.822  0.4473  0.9305 -0.1919
 1655TFB     F422275   2.425   5.275   1.733  0.6734  0.1384 -0.3947
 1656TFB      B22276   0.528   4.905   5.592  0.1793  0.2630 -0.1336
 1656TFB     F122277   0.624   5.002   5.598 -0.4829  0.1336  0.0917
 1656TFB     F222278   0.569   4.786   5.536  0.4627 -0.1700 -0.1078
 1656TFB     F322279   0.458   4.884   5.715  0.1400 -0.0710  0.5960
 1656TFB     F422280   0.430   4.949   5.502  0.5831 -0.1017 -0.1788
 1657TFB      B22281   1.466   0.566   5.182 -0.1559  0.4619 -0.1048
 1657TFB     F122282   1.602   0.583   5.188  0.0757 -0.5959  0.8245
 1657TFB     F222283   1.432   0.487   5.292 -0.1481 -0.5731  0.6425
 1657TFB     F322284   1.421   0.693   5.186  0.2813  0.2765 -0.0868
 1657TFB     F422285   1.420   0.501   5.067 -0.0000  0.5982 -0.4366
 1658TFB      B22286   4.469   1.099   2.770 -0.1349  0.3225 -0.0146
 1658TFB     F122287   4.482   1.189   2.664  0.0927  0.2606 -0.1952
 1658TFB     F222288   4.409   1.174   2.872  0.1594  0.5018  0.1517
 1658TFB     F322289   4.381   0.999   2.738 -0.1326 -0.3636 -0.1903
 1658TFB     F422290   4.601   1.054   2.809  0.1505  0.2472  0.0092
 1659TFB      B22291   5.634   2.889   0.839  0.0842 -0.2816 -0.5721
 1659TFB     F122292   5.542   2.987   0.870 -0.2932  0.3537  0.6649
 1659TFB     F222293   5.704   2.841   0.952  0.4248  0.3616  0.0535
 1659TFB     F322294   5.574   2.782   0.780  0.4987  0.0618  0.3524
 1659TFB     F422295   5.720   2.943   0.743  0.4515  0.4886  0.0814
 1660TFB      B22296   6.210   5.665   3.338 -0.5748 -0.4668 -0.2527
 1660TFB     F122297   6.184   5.581   3.232  0.4410  0.1168 -0.0452
 1660TFB     F222298   6.093   5.676   3.405 -0.5405 -0.6007 -0.0698
 1660TFB     F322299   6.303   5.601   3.419  0.1154  0.0605  0.3020
 1660TFB     F422300   6.272   5.784   3.302 -0.0665 -0.0203 -0.2042
 1661TFB      B22301   5.346   6.048   6.013  0.0709  0.7609  0.1033
 1661TFB     F122302   5.358   5.932   6.091  0.3168 -0.1685 -0.2622
 1661TFB     F222303   5.229   6.102   6.052  0.1209  0.2624 -0.0854
 1661TFB     F322304   5.450   6.143   6.028  0.6423  0.1721 -0.0529
 1661TFB     F422305   5.339   6.002   5.885 -0.0163  0.0081  0.8697
 1662TFB      B22306   6.068   4.948   3.271 -1.0278 -0.7130  0.3179
 1662TFB     F122307   6.197   4.901   3.248 -0.8123 -0.1804  0.0292
 1662TFB     F222308   6.074   5.014   3.403  0.0484 -0.0061 -0.1804
 1662TFB     F322309   6.019   5.045   3.184  0.7392  0.8866  0.4545
 1662TFB     F422310   5.981   4.840   3.283  0.2942 -0.1969  0.3568
 1663TFB      B22311   1.775   1.961   0.751 -0.2492  0.4312  0.2668
 1663TFB     F122312   1.836   1.906   0.632  0.5007  0.1925  0.1649
 1663TFB     F222313   1.868   2.055   0.796 -0.5285 -0.1462  0.2247
 1663TFB     F322314   1.661   2.026   0.706 -0.4488 -0.4247  0.3275
 1663TFB     F422315   1.745   1.873   0.852 -0.0986 -0.2478 -0.6025
 1664TFB      B22316   2.533   3.375   4.645 -0.0077 -0.1789 -0.1244
 1664TFB     F122317   2.460   3.493   4.649  0.2084  0.3324 -0.2675
 1664TFB     F222318   2.481   3.281   4.732  0.6570  0.4756  0.5957
 1664TFB     F322319   2.545   3.331   4.510 -0.6635 -0.6614 -0.8095
 1664TFB     F422320   2.656   3.403   4.687 -0.0604  0.3812 -0.5235
 1665TFB      B22321   5.473   2.228   5.129 -0.6407  0.3684 -0.2923
 1665TFB     F122322   5.600   2.195   5.087 -0.0583 -0.4182 -0.2226
 1665TFB     F222323   5.416   2.124   5.203 -0.1495  0.1597  0.6584
 1665TFB     F322324   5.485   2.344   5.211 -0.0301 -0.1850  0.1872
 1665TFB     F422325   5.402   2.274   5.020 -0.0880 -0.3223  0.0945
 1666TFB      B22326   1.789   2.435   5.790  0.4366  0.0123  0.1595
 1666TFB     F122327   1.667   2.411   5.724  0.2481 -0.0814 -0.1444
 1666TFB     F222328   1.893   2.473   5.703  0.3423  0.0008  0.4611
 1666TFB     F322329   1.772   2.524   5.894 -0.1609  0.2104 -0.1544
 1666TFB     F422330   1.831   2.313   5.847  0.3397  0.3951  0.5981
 1667TFB      B22331   5.222   2.632   2.114 -0.4277  0.0103 -0.3558
 1667TFB     F122332   5.336   2.681   2.182  0.2609 -0.0298 -0.0138
 1667TFB     F222333   5.190   2.725   2.019  0.5619  0.5512  0.8202
 1667TFB     F322334   5.246   2.514   2.053 -0.3842 -0.8691  0.2328
 1667TFB     F422335   5.113   2.621   2.199 -0.1826  0.3641  0.3204
 1668TFB      B22336   2.652   3.372   5.939  0.1058 -0.5516  0.0438
 1668TFB     F122337   2.661   3.235   5.967 -0.3126  0.1232 -0.3329
 1668TFB     F222338   2.526   3.414   5.994 -0.1498 -0.1725  0.2342
 1668TFB     F322339   2.753   3.448   5.995  0.3105 -0.2851 -0.2087
 1668TFB     F422340   2.658   3.383   5.800  0.1763  0.0890 -0.0439
 1669TFB      B22341   6.260   1.786   4.985 -0.0671  0.0499  0.5822
 1669TFB     F122342   6.303   1.911   4.946  0.4642 -0.2546 -0.2910
 1669TFB     F222343   6.125   1.795   5.021  0.0203  0.3702 -0.1989
 1669TFB     F322344   6.283   1.692   4.878 -0.0077 -0.1532 -0.4238
 1669TFB     F422345   6.331   1.742   5.100  0.1949  0.6553 -0.2902
 1670TFB      B22346   2.264   2.876   3.633  0.1427 -0.3067 -0.2905
 1670TFB     F122347   2.244   2.778   3.532  0.3649 -0.2027  1.1454
 1670TFB     F222348   2.280   3.009   3.585 -0.1315 -0.2908 -0.6421
 1670TFB     F322349   2.146   2.878   3.710  0.0511 -0.1115 -0.4254
 1670TFB     F422350   2.365   2.823   3.705  0.2863  0.2860  0.5317
 1671TFB      B22351   0.172   0.199   6.259  0.4056 -0.1719  0.0382
 1671TFB     F122352   0.185   0.087   6.345 -0.4352  0.2528 -0.8590
 1671TFB     F222353   0.140   0.162   6.129  0.8502  0.3054  0.5602
 1671TFB     F322354   0.073   0.274   6.312 -0.1114 -0.3320  0.4512
 1671TFB     F422355   0.287   0.269   6.259 -0.2051 -0.0532  0.0955
 1672TFB      B22356   3.321   5.107   4.388 -0.7039 -0.1169  0.5268
 1672TFB     F122357   3.316   4.981   4.456 -0.1987 -0.0496  0.7622
 1672TFB     F222358   3.454   5.163   4.392  0.2665  0.0125  0.0850
 1672TFB     F322359   3.257   5.106   4.263 -0.3554  0.7035  0.1162
 1672TFB     F422360   3.236   5.192   4.466 -0.1886  0.2767 -0.1067
 1673TFB      B22361   3.195   1.338   4.272 -0.0388  0.3075 -0.7223
 1673TFB     F122362   3.292   1.255   4.219  0.2534 -0.1003  0.1103
 1673TFB     F222363   3.131   1.245   4.358  0.2318 -0.1020 -0.2556
 1673TFB     F322364   3.256   1.430   4.351 -0.0656 -0.0316  0.4595
 1673TFB     F422365   3.112   1.392   4.178 -0.7281 -0.0379 -0.5154
 1674TFB      B22366   5.749   2.814   4.053  0.1603 -1.1101 -0.8143
 1674TFB     F122367   5.878   2.797   4.090  0.2756  0.5366  0.1450
 1674TFB     F222368   5.754   2.830   3.914 -0.4443  0.4972  0.4588
 1674TFB     F322369   5.673   2.701   4.083  0.1364 -0.6299  0.2560
 1674TFB     F422370   5.684   2.926   4.114 -0.4475 -0.3205  0.2643
 1675TFB      B22371   4.462   2.300   4.328 -0.3796 -0.2672 -1.0445
 1675TFB     F122372   4.401   2.403   4.401 -0.1993  0.3373 -0.7933
 1675TFB     F222373   4.508   2.352   4.206  0.1043  0.3117  0.3740
 1675TFB     F322374   4.577   2.255   4.392  0.5329 -0.0205  0.1372
 1675TFB     F422375   4.382   2.196   4.314 -0.3360 -0.2439 -0.2444
 1676TFB      B22376   1.370   2.506   0.249 -0.7412  0.6113 -0.8262
 1676TFB     F122377   1.433   2.552   0.134 -0.2048  0.3654  0.1900
 1676TFB     F222378   1.237   2.545   0.246 -0.1522 -0.1991 -0.0629
 1676TFB     F322379   1.375   2.368   0.253  0.5075  0.0873  0.3516
 1676TFB     F422380   1.450   2.555   0.353  0.6312  0.3362  0.1510
 1677TFB      B22381   1.695   1.248   0.309  0.0976 -0.2831 -0.0675
 1677TFB     F122382   1.596   1.166   0.343 -0.1450  0.2449 -1.1800
 1677TFB     F222383   1.811   1.208   0.378 -0.5726 -0.0706  0.1401
 1677TFB     F322384   1.713   1.242   0.177 -0.0416  0.1072 -0.5089
 1677TFB     F422385   1.670   1.383   0.347  0.0074  0.4755  0.3394
 1678TFB      B22386   1.369   0.090   6.157  0.1506  0.3282 -0.5058
 1678TFB     F122387   1.472   0.084   6.242 -0.0445  0.3084  0.2788
 1678TFB     F222388   1.348   0.223   6.132 -0.7559  0.0347  0.3407
 1678TFB     F322389   1.386   0.021   6.039  0.6618 -0.1404  0.2297
 1678TFB     F422390   1.254   0.043   6.218  0.4735 -0.8926 -0.0174
 1679TFB      B22391   1.278   4.596   1.767 -0.3970 -0.0087  0.1688
 1679TFB     F122392   1.376   4.700   1.781  0.4033 -1.0837 -0.4296
 1679TFB     F222393   1.160   4.620   1.839  0.9289  0.2662 -0.3386
 1679TFB     F322394   1.250   4.583   1.634 -0.4991  0.0297  0.0164
 1679TFB     F422395   1.327   4.474   1.811 -0.1976  0.8506 -0.5238
 1680TFB      B22396   0.875   6.155   2.073  0.2105 -0.1348  0.9931
 1680TFB     F122397   0.769   6.072   2.099  0.5638 -0.1780  0.1196
 1680TFB     F222398   0.872   6.198   1.944  0.2785 -0.2748  0.1756
 1680TFB     F322399   0.857   6.264   2.156  0.2643 -0.0681  0.0546
 1680TFB     F422400   0.992   6.108   2.112 -0.1232  0.0550  0.5771
 1681TFB      B22401   2.970   1.111   2.815  0.1390  0.2517 -0.0313
 1681TFB     F122402   2.843   1.069   2.861  0.3224 -0.1092  0.5692
 1681TFB     F222403   3.022   1.012   2.733  0.0683  0.5467  0.3343
 1681TFB     F322404   2.950   1.217   2.735  0.6478 -0.2284 -0.6850
 1681TFB     F422405   3.047   1.156   2.926 -0.0578  0.3574  0.2143
 1682TFB      B22406   3.434   2.421   5.856 -0.2431 -0.2407 -0.0176
 1682TFB     F122407   3.464   2.297   5.806 -0.0791 -0.1888 -0.5478
 1682TFB     F222408   3.429   2.407   6.000 -0.1179  0.5685  0.5795
 1682TFB     F322409   3.520   2.524   5.816  0.1048  0.1092 -0.0194
 1682TFB     F422410   3.317   2.463   5.799  0.0179  0.4227 -0.1487
 1683TFB      B22411   1.744   0.016   4.482 -0.3698  0.3594 -0.5807
 1683TFB     F122412   1.672   0.107   4.402  0.0769 -0.5391 -0.1894
 1683TFB     F222413   1.849  -0.041   4.410 -0.2853 -0.2693 -0.1727
 1683TFB     F322414   1.779   0.086   4.593  0.0355 -0.1682 -0.1402
 1683TFB     F422415   1.661  -0.089   4.510  0.0498  0.5841  0.0047
 1684TFB      B22416   4.769   5.292   5.940  0.2296  0.3888 -0.3288
 1684TFB     F122417   4.802   5.251   5.810 -0.4488  0.2356 -0.3889
 1684TFB     F222418   4.866   5.385   5.984 -0.5161 -0.2223 -0.3400
 1684TFB     F322419   4.633   5.351   5.936  0.2719  0.5660  0.0557
 1684TFB     F422420   4.763   5.186   6.024  0.3870  0.1444 -0.0269
 1685TFB      B22421   4.758   1.922   1.722 -0.3947  0.6126  0.0219
 1685TFB     F122422   4.833   1.806   1.700 -0.1673  0.3797 -0.4982
 1685TFB     F222423   4.796   2.028   1.634  0.0778  0.7512  0.2880
 1685TFB     F322424   4.621   1.897   1.703 -0.2877 -0.2238  0.1579
 1685TFB     F422425   4.776   1.968   1.851 -0.2211  0.0248 -0.3015
 1686TFB      B22426   2.087   4.537   2.910 -0.8238  1.0005  0.0673
 1686TFB     F122427   2.016   4.643   2.860  0.1890 -0.5502 -0.2975
 1686TFB     F222428   2.000   4.430   2.915 -0.2179 -0.2116  0.5074
 1686TFB     F322429   2.190   4.512   2.816 -0.2690 -0.4074 -0.0129
 1686TFB     F422430   2.130   4.554   3.044  0.0927 -0.4102  0.4282
 1687TFB      B22431   2.922   5.147   0.299 -0.9155  0.3736 -0.1918
 1687TFB     F122432   3.000   5.139   0.417  0.2103 -0.4906 -0.1165
 1687TFB     F222433   2.797   5.136   0.338 -0.0529  0.4521 -0.3510
 1687TFB     F322434   2.946   5.265   0.243  0.1764  0.2665 -0.7162
 1687TFB     F422435   2.968   5.039   0.224  0.6034  0.4131 -0.1049
 1688TFB      B22436   4.759   2.338   2.422  0.2595  0.3199 -0.3727
 1688TFB     F122437   4.710   2.242   2.513  0.0711 -0.5856  0.0258
 1688TFB     F222438   4.719   2.463   2.478  0.0230  0.2727 -0.7130
 1688TFB     F322439   4.899   2.336   2.414 -0.0379  0.2958  0.6499
 1688TFB     F422440   4.701   2.325   2.290 -0.2178  0.5821 -0.1481
 1689TFB      B22441   0.896   2.016   1.842 -0.6442 -0.4887  0.4687
 1689TFB     F122442   0.948   2.072   1.723 -0.3192 -0.2245 -0.3569
 1689TFB     F222443   0.760   1.990   1.842 -0.5277 -0.0126 -0.1349
 1689TFB     F322444   0.965   1.900   1.874  0.0442  0.4174 -0.0282
 1689TFB     F422445   0.923   2.120   1.936 -0.3366  0.5889 -0.1402
 1690TFB      B22446   0.695   3.919   0.586  0.1724  0.8604 -0.7494
 1690TFB     F122447   0.674   3.779   0.625  0.4318 -0.5298 -0.5153
 1690TFB     F222448   0.690   3.944   0.449 -0.0790 -0.3060  0.0047
 1690TFB     F322449   0.602   4.005   0.642 -0.3089 -0.7501  0.5888
 1690TFB     F422450   0.821   3.948   0.623  0.3920 -0.6931  0.1844
 1691TFB      B22451   1.132   0.389   3.080  0.1762 -0.3843  0.7891
 1691TFB     F122452   1.200   0.470   3.169 -0.0259 -0.2652  0.0315
 1691TFB     F222453   0.991   0.393   3.096 -0.1059 -0.4601 -0.4469
 1691TFB     F322454   1.154   0.444   2.954 -0.1055 -0.0966  0.2377
 1691TFB     F422455   1.180   0.253   3.080 -0.0313 -0.1973 -0.1233
 1692TFB      B22456   0.101   2.909   1.259  0.4913 -0.1754  0.6285
 1692TFB     F122457   0.237   2.925   1.270  0.1169  0.4098  0.6627
 1692TFB     F222458   0.053   2.784   1.293  0.3368  0.3797  0.4973
 1692TFB     F322459   0.047   3.003   1.344  0.2394 -0.7309 -0.3993
 1692TFB     F422460   0.063   2.925   1.131 -0.6359  0.0256  0.6713
 1693TFB      B22461   1.961   4.040   5.384  0.1333  0.3406 -0.5697
 1693TFB     F122462   1.948   4.178   5.359 -0.2987  0.5961 -0.3932
 1693TFB     F222463   1.855   3.974   5.333  0.1462  0.3253 -0.2928
 1693TFB     F322464   2.085   3.997   5.347 -0.0585  0.4462  0.5926
 1693TFB     F422465   1.960   4.022   5.517 -0.3896  0.7306 -0.0293
 1694TFB      B22466   0.664   4.821   2.921 -0.3562 -0.3114 -1.1405
 1694TFB     F122467   0.751   4.796   2.819  0.1666  0.3598  0.2186
 1694TFB     F222468   0.658   4.960   2.968  0.4524 -0.1202  0.0321
 1694TFB     F322469   0.542   4.772   2.892  0.1123 -0.6512 -0.2019
 1694TFB     F422470   0.692   4.751   3.042  0.3116  0.1092  0.2721
 1695TFB      B22471   6.277   4.835   1.628 -0.4484  1.2771  0.4304
 1695TFB     F122472   6.343   4.922   1.714 -0.0434  0.4503 -0.0326
 1695TFB     F222473   6.200   4.742   1.705  0.3657  0.3906 -0.4233
 1695TFB     F322474   6.188   4.911   1.545 -0.1724  0.4621  0.5490
 1695TFB     F422475   6.359   4.764   1.547 -0.3441 -0.4524  0.1373
 1696TFB      B22476   1.597   2.319   4.296  0.5978  0.7236 -0.8893
 1696TFB     F122477   1.670   2.351   4.188  0.3894 -0.7296 -0.5624
 1696TFB     F222478   1.576   2.436   4.368  0.7325 -0.0118  0.1821
 1696TFB     F322479   1.464   2.278   4.263 -0.1726  0.2331  0.2629
 1696TFB     F422480   1.664   2.229   4.379  0.0829  0.1425  0.0037
 1697TFB      B22481   4.116   6.282   2.594  0.3737  0.1806  0.2430
 1697TFB     F122482   4.222   6.206   2.547 -0.1848 -0.0550 -0.0709
 1697TFB     F222483   4.155   6.332   2.714 -0.0890  0.2224  0.6779
 1697TFB     F322484   4.075   6.380   2.502 -0.2835  0.4868  0.3794
 1697TFB     F422485   4.011   6.198   2.624 -0.3007  0.5433 -0.2550
 1698TFB      B22486   6.289   0.542   3.591 -1.0827  0.0392 -0.5773
 1698TFB     F122487   6.199   0.575   3.493 -0.5583 -0.4110  0.2731
 1698TFB     F222488   6.303   0.651   3.675  0.0666 -0.5557 -0.2119
 1698TFB     F322489   6.247   0.425   3.664  0.5055  0.7323  0.4774
 1698TFB     F422490   6.410   0.506   3.542  0.3975 -0.1623  0.1573
 1699TFB      B22491   1.884   5.661   3.808 -0.4847  0.1975  0.1369
 1699TFB     F122492   1.892   5.522   3.813 -0.5439 -0.4864 -0.5772
 1699TFB     F222493   1.790   5.696   3.716  0.2955 -0.4356 -0.1081
 1699TFB     F322494   1.848   5.716   3.932 -0.2119  0.1449 -0.3056
 1699TFB     F422495   2.018   5.712   3.773  0.0726  0.4433 -0.2077
 1700TFB      B22496   5.018   5.625   0.790  0.5650  0.3872  0.0380
 1700TFB     F122497   5.059   5.495   0.807 -0.1830 -0.0975  0.9315
 1700TFB     F222498   4.885   5.633   0.796  0.1036 -0.5326  0.2059
 1700TFB     F322499   5.054   5.692   0.904  0.5491  0.4718 -0.4562
 1700TFB     F422500   5.066   5.677   0.677  0.2165  0.1391  0.6726
 1701TFB      B22501   3.705   3.660   4.205  0.3626  0.0084  0.2215
 1701TFB     F122502   3.723   3.653   4.340  0.0431  0.8502 -0.6226
 1701TFB     F222503   3.602   3.569   4.169  0.2214 -0.3515 -0.3843
 1701TFB     F322504   3.684   3.798   4.176 -0.2115  0.0015  0.2347
 1701TFB     F422505   3.819   3.630   4.140  0.3851 -0.2611 -0.2047
 1702TFB      B22506   6.114   3.551   4.695  0.9475 -0.2878  0.2095
 1702TFB     F122507   5.988   3.536   4.634  0.6116  0.0490  0.1304
 1702TFB     F222508   6.195   3.513   4.592 -0.3817 -0.5715  0.1620
 1702TFB     F322509   6.131   3.687   4.739  0.1787  0.7557 -0.5939
 1702TFB     F422510   6.127   3.460   4.795 -0.2463 -0.0398 -0.4484
 1703TFB      B22511   3.000   2.020   5.385 -0.8151 -1.0782  0.8357
 1703TFB     F122512   2.976   1.946   5.271 -0.7005  0.0575 -0.3726
 1703TFB     F222513   3.025   1.929   5.489  0.4874 -0.5007  0.2449
 1703TFB     F322514   3.102   2.105   5.361 -0.3251  0.1818  0.3595
 1703TFB     F422515   2.895   2.105   5.419 -0.4109  0.5726 -0.0743
 1704TFB      B22516   2.979   4.175   5.434  0.2869 -0.2368  0.1221
 1704TFB     F122517   2.940   4.281   5.355  0.3998  0.0715 -1.1127
 1704TFB     F222518   2.924   4.196   5.561 -0.6199  0.4136 -0.0486
 1704TFB     F322519   2.940   4.052   5.379 -0.6038  0.6506  0.1630
 1704TFB     F422520   3.120   4.194   5.451  0.4086  0.5766  0.8275
 1705TFB      B22521   5.891   3.559   2.309 -0.4470  0.9143  0.1762
 1705TFB     F122522   5.984   3.611   2.394  0.3040 -0.1270 -0.0018
 1705TFB     F222523   5.960   3.542   2.193  0.2281 -0.6618 -0.1597
 1705TFB     F322524   5.871   3.419   2.336  0.0327 -0.2434 -0.0195
 1705TFB     F422525   5.771   3.627   2.293  0.2062  0.1082  0.5010
 1706TFB      B22526   5.890   2.608   2.375 -0.5612  0.4180 -0.2947
 1706TFB     F122527   5.772   2.661   2.323  0.1591 -0.3005  0.6505
 1706TFB     F222528   5.877   2.598   2.515 -0.1429 -0.6439 -0.0900
 1706TFB     F322529   5.903   2.483   2.319  0.2934  0.4216  0.0312
 1706TFB     F422530   5.995   2.690   2.348  0.3509  0.5530 -0.0946
 1707TFB      B22531   0.364   2.030   1.607 -0.0531  0.7138 -0.3194
 1707TFB     F122532   0.231   2.057   1.629  0.0644  0.6219  0.0850
 1707TFB     F222533   0.401   1.894   1.582  0.5032 -0.5476 -0.0715
 1707TFB     F322534   0.393   2.097   1.497  0.1169 -0.7287  0.5318
 1707TFB     F422535   0.429   2.084   1.716 -0.5944  0.5634 -0.0329
 1708TFB      B22536   1.268   4.319   0.663  0.1568  0.0510 -0.2326
 1708TFB     F122537   1.183   4.384   0.753 -0.1835 -0.3349  0.0531
 1708TFB     F222538   1.201   4.215   0.600  0.1694 -0.0255 -0.1115
 1708TFB     F322539   1.319   4.406   0.568  0.3714  0.1987  0.0956
 1708TFB     F422540   1.377   4.259   0.733  0.4408  0.0527 -0.3337
 1709TFB      B22541   4.836   2.564   3.293  0.1237  0.1645 -0.1549
 1709TFB     F122542   4.918   2.627   3.389 -0.1140 -0.1887  0.6322
 1709TFB     F222543   4.875   2.578   3.164  0.4780  0.2138 -0.1660
 1709TFB     F322544   4.832   2.429   3.312 -0.3508 -0.0753  0.1981
 1709TFB     F422545   4.703   2.602   3.302 -0.2529 -0.0026 -0.0984
 1710TFB      B22546   3.048   1.051   1.561  0.4643  1.1951 -0.1130
 1710TFB     F122547   3.033   0.927   1.625  0.2362 -0.5136 -0.0977
 1710TFB     F222548   3.119   1.149   1.626  0.1084  0.4805 -0.0565
 1710TFB     F322549   3.101   1.027   1.436 -0.6776  0.4034  0.1040
 1710TFB     F422550   2.925   1.107   1.537 -0.0509  0.4433 -0.4020
 1711TFB      B22551   4.485   1.028   0.967 -0.2154  1.1569 -0.2314
 1711TFB     F122552   4.568   1.142   0.967 -0.0930  0.5745  0.6091
 1711TFB     F222553   4.384   1.047   1.059  0.3530  0.1514 -0.2503
 1711TFB     F322554   4.441   1.003   0.839 -0.1865 -0.1606  0.0155
 1711TFB     F422555   4.569   0.924   1.017 -0.4162 -0.2680  0.3029
 1712TFB      B22556   2.738   6.332   4.034 -0.2781 -0.1478 -0.1788
 1712TFB     F122557   2.843   6.401   3.987 -0.1529  0.0283  0.0635
 1712TFB     F222558   2.701   6.402   4.149 -0.0125  0.2572 -0.3838
 1712TFB     F322559   2.626   6.325   3.949  0.2166  0.4252 -0.3830
 1712TFB     F422560   2.767   6.197   4.070  0.0063  0.4505  0.5116
 1713TFB      B22561   0.526   1.964   6.093 -0.4196 -0.1193 -0.0534
 1713TFB     F122562   0.649   1.911   6.066 -0.4741  0.4137  0.4448
 1713TFB     F222563   0.482   1.922   6.212  0.1910  0.0045  0.4101
 1713TFB     F322564   0.544   2.103   6.100 -0.3514  0.5310 -0.7314
 1713TFB     F422565   0.436   1.925   5.997 -0.5798 -0.1010 -0.3544
 1714TFB      B22566   1.900   5.652   0.312  0.2710  0.0448  0.4618
 1714TFB     F122567   1.877   5.775   0.377  0.2616  0.1358 -0.2016
 1714TFB     F222568   1.787   5.566   0.335 -0.8828 -0.4548  0.1737
 1714TFB     F322569   1.918   5.693   0.178  0.5191  0.5044 -0.0278
 1714TFB     F422570   2.009   5.591   0.359 -0.0035 -0.0361 -0.1774
 1715TFB      B22571   1.753   1.710   3.845  0.2785 -1.0970  1.4027
 1715TFB     F122572   1.761   1.720   3.705  0.2367 -0.2144  0.1899
 1715TFB     F222573   1.751   1.577   3.874  0.1170 -0.0722  0.0461
 1715TFB     F322574   1.852   1.760   3.919 -0.3548  0.5061  0.1438
 1715TFB     F422575   1.636   1.773   3.894 -0.0653 -0.8021  0.2689
 1716TFB      B22576   2.456   2.863   1.181  0.0007 -0.5952  0.8283
 1716TFB     F122577   2.421   2.809   1.304 -0.0526 -0.2588  0.0200
 1716TFB     F222578   2.492   2.778   1.080 -0.2692  0.3134  0.3329
 1716TFB     F322579   2.351   2.939   1.142  0.2330  0.8025  0.8450
 1716TFB     F422580   2.564   2.945   1.197  0.4308 -0.0928  0.3063
 1717TFB      B22581   0.391   1.674   5.531 -0.7644  0.0073 -0.0905
 1717TFB     F122582   0.437   1.554   5.490  0.0824  0.2056  0.3387
 1717TFB     F222583   0.473   1.774   5.474  0.2775  0.1522  0.0160
 1717TFB     F322584   0.265   1.702   5.484 -0.1676  0.3703 -0.3176
 1717TFB     F422585   0.396   1.681   5.666 -0.0642  0.2617 -0.0504
 1718TFB      B22586   0.548   2.004   3.699 -0.2034 -0.2062  0.3935
 1718TFB     F122587   0.656   1.921   3.676 -0.2169 -0.6178  0.0992
 1718TFB     F222588   0.456   2.001   3.604 -0.0845  0.1201  0.1532
 1718TFB     F322589   0.496   1.957   3.817  0.1462 -0.5103 -0.3062
 1718TFB     F422590   0.585   2.134   3.721  0.5118 -0.0411 -0.4221
 1719TFB      B22591   1.968   0.686   6.271 -0.8790  0.0514  0.6796
 1719TFB     F122592   1.936   0.716   6.141  0.2358 -0.2866  0.6225
 1719TFB     F222593   2.109   0.683   6.279  0.5544 -0.4260 -0.1950
 1719TFB     F322594   1.905   0.751   6.377  0.0690 -0.3977  0.4056
 1719TFB     F422595   1.930   0.552   6.287 -0.1000 -0.2947  0.1729
 1720TFB      B22596   0.759   4.865   4.443 -0.4852  0.1111  0.3298
 1720TFB     F122597   0.889   4.856   4.505 -0.5103  0.6867 -0.0658
 1720TFB     F222598   0.670   4.952   4.522  0.5668 -0.1761  0.3183
 1720TFB     F322599   0.780   4.904   4.308  0.0836 -0.5500  0.1860
 1720TFB     F422600   0.696   4.740   4.448 -0.1801 -0.3279  0.7448
 1721TFB      B22601   5.705   5.601   2.895 -0.0769  0.3792  0.4862
 1721TFB     F122602   5.810   5.524   2.947 -0.1919 -0.0019  0.0893
 1721TFB     F222603   5.589   5.549   2.954  0.1489  0.5345 -0.6522
 1721TFB     F322604   5.731   5.733   2.929  0.1985  0.5652 -0.0378
 1721TFB     F422605   5.701   5.582   2.756 -0.4009  0.0102 -0.1808
 1722TFB      B22606   2.929   4.971   1.633 -0.7053  0.0343 -0.0837
 1722TFB     F122607   2.855   5.024   1.530 -0.3059 -0.1824 -0.0227
 1722TFB     F222608   2.944   5.067   1.733  0.3095 -0.0872  0.5136
 1722TFB     F322609   2.872   4.858   1.687 -0.1426 -0.3198  0.4235
 1722TFB     F422610   3.051   4.935   1.565  0.1985 -0.3246  0.1815
 1723TFB      B22611   0.948   2.947   4.151  0.2048 -0.6751 -0.9982
 1723TFB     F122612   0.993   3.034   4.248 -0.2926  0.1838 -0.1606
 1723TFB     F222613   0.816   2.934   4.197 -0.1682  0.1705 -0.2240
 1723TFB     F322614   0.948   3.013   4.034  0.1386  0.0165 -0.0938
 1723TFB     F422615   1.017   2.825   4.154 -0.1925  0.2099 -0.3611
 1724TFB      B22616   3.259   1.822   0.663  0.1786  0.4286  0.2496
 1724TFB     F122617   3.207   1.705   0.607 -0.1714 -0.3149  0.0743
 1724TFB     F222618   3.217   1.835   0.794  0.6687 -0.5821  0.1867
 1724TFB     F322619   3.396   1.834   0.649 -0.1851  0.2133  1.2545
 1724TFB     F422620   3.209   1.919   0.583 -0.2347  0.4054 -0.0930
 1725TFB      B22621   0.870   4.269   3.296  0.3689 -0.1258 -0.6168
 1725TFB     F122622   0.764   4.303   3.213  0.5204  0.3623 -0.1910
 1725TFB     F222623   0.966   4.186   3.229  0.0201 -0.4959  0.6331
 1725TFB     F322624   0.923   4.385   3.339  0.1699 -0.0289  0.5174
 1725TFB     F422625   0.819   4.204   3.401  0.2235  0.2383  0.0344
 1726TFB      B22626   0.739   2.306   4.403  0.0598 -0.1914 -0.2344
 1726TFB     F122627   0.685   2.194   4.335  0.0602 -0.9440 -0.2158
 1726TFB     F222628   0.778   2.286   4.533 -0.2509 -0.0715  0.7782
 1726TFB     F322629   0.848   2.361   4.336 -0.5322  0.2031 -0.0301
 1726TFB     F422630   0.633   2.391   4.418  0.3456 -0.2296  0.0774
 1727TFB      B22631   0.686   0.991   0.806  0.0109  0.8565  0.4546
 1727TFB     F122632   0.681   0.895   0.907 -0.0491 -0.2338  0.0366
 1727TFB     F222633   0.592   0.953   0.713  0.1487 -0.1142 -0.3569
 1727TFB     F322634   0.651   1.115   0.857 -0.2460  0.3215  0.7524
 1727TFB     F422635   0.809   1.000   0.738 -0.0185 -0.0858 -0.1987
 1728TFB      B22636   4.265   0.444   3.922  0.6277 -1.1188 -0.4772
 1728TFB     F122637   4.262   0.331   3.846  0.2465  0.4351  0.2469
 1728TFB     F222638   4.292   0.551   3.835 -0.3218  0.2589 -0.3905
 1728TFB     F322639   4.141   0.471   3.980  0.5315 -0.2809  0.0573
 1728TFB     F422640   4.362   0.439   4.016  0.4536  0.1718 -0.1491
 1729TFB      B22641   1.593   2.498   3.614 -1.0169 -0.0343  0.4365
 1729TFB     F122642   1.655   2.515   3.494  0.0908 -0.1755 -0.7433
 1729TFB     F222643   1.466   2.459   3.572  0.6076  0.2059  0.7313
 1729TFB     F322644   1.654   2.394   3.686  0.5761 -0.3891 -0.1131
 1729TFB     F422645   1.613   2.633   3.660  0.2928  0.6908  0.1121
 1730TFB      B22646   4.258   1.269   4.071 -0.6895 -0.6601 -0.7188
 1730TFB     F122647   4.251   1.347   4.186 -0.5852  0.5138 -0.3282
 1730TFB     F222648   4.134   1.233   4.036  0.0306  0.3279 -0.2663
 1730TFB     F322649   4.315   1.355   3.975  0.0514 -0.2323  0.3857
 1730TFB     F422650   4.341   1.160   4.092  0.0933  0.4669  0.3954
 1731TFB      B22651   0.179   0.112   4.014 -0.1188 -1.0570 -0.4388
 1731TFB     F122652   0.109  -0.006   4.037  0.4067 -0.0024 -0.5382
 1731TFB     F222653   0.084   0.215   3.978  0.4270 -0.2187 -0.0560
 1731TFB     F322654   0.261   0.164   4.117  0.4640  0.4246  0.3921
 1731TFB     F422655   0.259   0.086   3.911  0.2547  0.0789  0.1815
 1732TFB      B22656   2.890   1.752   3.104  0.1871 -0.6106 -0.6117
 1732TFB     F122657   2.890   1.742   2.966 -0.2448  0.2103 -0.1730
 1732TFB     F222658   2.878   1.633   3.170  0.4195  0.2042  0.4101
 1732TFB     F322659   3.004   1.821   3.157  0.1730 -0.2049 -0.1249
 1732TFB     F422660   2.778   1.828   3.141  0.3705  0.3483  0.4690
 1733TFB      B22661   5.209   2.561   2.815  0.4950 -0.6325 -0.1105
 1733TFB     F122662   5.341   2.582   2.791 -0.1027 -0.2696 -0.0253
 1733TFB     F222663   5.182   2.432   2.776  0.3070 -0.0788  0.0822
 1733TFB     F322664   5.186   2.569   2.952 -0.1336  0.0993  0.2195
 1733TFB     F422665   5.135   2.658   2.754  0.1734 -0.1501 -0.2287
 1734TFB      B22666   0.457   3.333   4.891 -0.4605 -0.1725 -0.1681
 1734TFB     F122667   0.332   3.348   4.957  0.2070 -0.5007  0.0191
 1734TFB     F222668   0.474   3.203   4.846  0.0628 -0.9424  0.5890
 1734TFB     F322669   0.483   3.427   4.798 -0.1581  0.0893 -0.0679
 1734TFB     F422670   0.548   3.359   4.995 -0.3980  0.8156 -0.0869
 1735TFB      B22671   4.017   0.715   0.184 -0.7452  0.1455 -0.1737
 1735TFB     F122672   3.951   0.724   0.305 -0.1138 -0.0242  0.3108
 1735TFB     F222673   3.944   0.648   0.091  0.5601 -0.3796  0.7915
 1735TFB     F322674   4.051   0.836   0.130 -0.3310 -0.1517 -0.0283
 1735TFB     F422675   4.137   0.653   0.212 -0.1665  0.2581 -0.1117
 1736TFB      B22676   0.782   4.536   5.824  0.1341  0.3089 -0.4620
 1736TFB     F122677   0.809   4.558   5.959  0.0028  0.0683  0.0844
 1736TFB     F222678   0.840   4.628   5.743  0.2225  0.0384 -0.2530
 1736TFB     F322679   0.836   4.408   5.789 -0.0217  0.0142  0.9758
 1736TFB     F422680   0.643   4.539   5.810 -0.5596  0.1082 -0.5810
 1737TFB      B22681   3.883   6.181   3.042  0.5870 -0.4169  0.2097
 1737TFB     F122682   3.855   6.206   3.180  0.0434  0.0938  0.3508
 1737TFB     F222683   3.815   6.069   2.988  0.1137 -0.0662 -0.6029
 1737TFB     F322684   3.874   6.293   2.958  0.4489  0.5059 -0.1142
 1737TFB     F422685   4.015   6.132   3.040 -0.1391  0.1278 -0.0457
 1738TFB      B22686   2.753   1.932   0.395 -0.0729  0.3682  1.2735
 1738TFB     F122687   2.882   1.923   0.437 -0.2253 -0.0552 -1.1434
 1738TFB     F222688   2.677   1.981   0.497 -0.3419  0.2953 -0.0757
 1738TFB     F322689   2.740   2.019   0.291 -0.0150 -0.6300 -0.1121
 1738TFB     F422690   2.714   1.805   0.351 -0.4776 -0.2240  0.0787
 1739TFB      B22691   4.652   2.369   1.147 -0.5604 -0.2046 -0.4896
 1739TFB     F122692   4.596   2.277   1.241 -0.6243  0.3715 -0.3338
 1739TFB     F222693   4.720   2.291   1.060 -0.7169  0.1976  0.2805
 1739TFB     F322694   4.547   2.432   1.086  0.4328  0.1290  0.1549
 1739TFB     F422695   4.734   2.454   1.227 -0.3314  0.6308  0.3763
 1740TFB      B22696   3.656   0.935   3.129  0.1730  0.2803 -0.4900
 1740TFB     F122697   3.567   0.842   3.082  0.2085 -0.3955 -0.0999
 1740TFB     F222698   3.784   0.887   3.110 -0.5155  0.1192  0.1334
 1740TFB     F322699   3.661   1.049   3.047  0.0999 -0.2504 -0.0060
 1740TFB     F422700   3.627   0.973   3.259  0.3531 -0.3430  0.0261
 1741TFB      B22701   3.423   4.557   3.852 -0.6359 -0.3959  0.0827
 1741TFB     F122702   3.398   4.426   3.896  0.0928 -0.2775  0.1922
 1741TFB     F222703   3.522   4.624   3.921  0.2032  0.5935 -0.1706
 1741TFB     F322704   3.444   4.556   3.720 -0.1324  0.1642  0.3037
 1741TFB     F422705   3.304   4.620   3.873 -0.7324 -0.3502 -0.2650
 1742TFB      B22706   5.855   1.302   5.725 -0.7459  0.6770  0.4669
 1742TFB     F122707   5.985   1.337   5.713  0.1217 -0.5306  0.1307
 1742TFB     F222708   5.771   1.373   5.650  0.7908 -0.1891  1.0706
 1742TFB     F322709   5.847   1.162   5.701  0.1075  0.3622  0.0530
 1742TFB     F422710   5.798   1.322   5.849  0.3443 -0.2044 -0.1088
 1743TFB      B22711   6.113   2.255   3.428  0.1228 -0.3687 -0.0555
 1743TFB     F122712   6.035   2.140   3.404 -0.2666 -0.2843  0.1200
 1743TFB     F222713   6.233   2.203   3.479 -0.2444  0.0118 -0.1942
 1743TFB     F322714   6.130   2.324   3.312  0.5430 -0.0213  0.6692
 1743TFB     F422715   6.055   2.333   3.533 -0.4442 -0.0766  0.3919
 1744TFB      B22716   4.822   1.989   5.144  0.8111 -0.2594  0.7699
 1744TFB     F122717   4.890   1.875   5.166  0.1293 -0.1735 -0.5312
 1744TFB     F222718   4.697   1.971   5.076  0.5986 -0.0722  0.5400
 1744TFB     F322719   4.810   2.048   5.268  0.0206  0.0663  0.0121
 1744TFB     F422720   4.912   2.067   5.062  0.0910 -0.1327 -0.0133
 1745TFB      B22721   2.643   0.429   1.497 -0.5870 -0.3767 -0.0850
 1745TFB     F122722   2.564   0.324   1.547  0.1271 -0.5983 -0.3098
 1745TFB     F222723   2.762   0.448   1.572 -0.4462 -0.2283  0.6802
 1745TFB     F322724   2.690   0.392   1.370 -0.2975 -0.1729 -0.3937
 1745TFB     F422725   2.578   0.550   1.485 -0.4284 -0.3839 -0.1067
 1746TFB      B22726   5.165   3.070   0.090 -0.5038  0.1334  0.8177
 1746TFB     F122727   5.212   3.114   0.210  0.3394  0.6890  0.2903
 1746TFB     F222728   5.218   2.943   0.070  0.3441  0.0661 -0.1586
 1746TFB     F322729   5.030   3.059   0.100  0.1583  0.0443  0.2416
 1746TFB     F422730   5.196   3.156  -0.013  0.4882  0.0264  0.2485
 1747TFB      B22731   2.720   0.484   0.910  0.0331  0.0767  0.5230
 1747TFB     F122732   2.771   0.359   0.874  0.1763 -0.8133  0.4851
 1747TFB     F222733   2.768   0.589   0.827 -0.3601  0.8670  0.4641
 1747TFB     F322734   2.583   0.478   0.901  0.0429 -0.7004  0.5561
 1747TFB     F422735   2.746   0.509   1.048 -0.2583 -0.5244 -0.6422
 1748TFB      B22736   2.363   2.146   3.199  0.8663  0.0733  0.6953
 1748TFB     F122737   2.225   2.159   3.171 -0.4315 -0.6784  0.3101
 1748TFB     F222738   2.390   2.007   3.193  0.1454  0.0209 -0.2851
 1748TFB     F322739   2.436   2.212   3.106 -0.3779  0.2783  0.2410
 1748TFB     F422740   2.395   2.192   3.322 -0.0771  0.2128 -0.7277
 1749TFB      B22741   4.212   3.288   3.040  0.3779  0.2273  0.5853
 1749TFB     F122742   4.079   3.340   3.059  0.2024  0.2006 -0.1465
 1749TFB     F222743   4.275   3.280   3.165  0.1845 -0.5104 -0.0277
 1749TFB     F322744   4.206   3.166   2.987  0.1666 -0.0670  0.1491
 1749TFB     F422745   4.301   3.372   2.973 -0.1623  0.1001 -0.5272
 1750TFB      B22746   1.970   1.914   5.680  0.6401 -0.2601  0.5334
 1750TFB     F122747   2.016   1.822   5.766 -0.7933  0.2027 -0.1182
 1750TFB     F222748   1.865   1.880   5.600 -0.5044  0.1556 -0.2765
 1750TFB     F322749   1.941   2.027   5.749  0.2149 -0.0867 -0.0964
 1750TFB     F422750   2.076   1.959   5.601 -0.0226 -0.4522 -0.0150
 1751TFB      B22751   4.544   0.785   5.336  0.0900  0.3518 -0.0618
 1751TFB     F122752   4.583   0.913   5.361 -0.2892 -0.5023  0.7636
 1751TFB     F222753   4.415   0.762   5.371  0.5449 -0.4846  0.3505
 1751TFB     F322754   4.574   0.756   5.203 -0.2173  0.1094  0.4399
 1751TFB     F422755   4.617   0.708   5.417 -0.1382  0.0890  0.0255
 1752TFB      B22756   2.774   1.226   0.920 -0.3545 -0.5098  0.2616
 1752TFB     F122757   2.779   1.117   1.000 -0.6365 -0.2908  0.0188
 1752TFB     F222758   2.910   1.226   0.877  0.1477 -0.2371 -0.0936
 1752TFB     F322759   2.693   1.194   0.811 -0.2709 -0.4054 -0.2316
 1752TFB     F422760   2.737   1.339   0.991 -0.2218 -0.7051  0.2927
 1753TFB      B22761   4.691   5.099   1.501  0.5153  0.2253  0.3009
 1753TFB     F122762   4.721   5.217   1.577 -0.2481 -0.1023 -0.5938
 1753TFB     F222763   4.614   5.007   1.569 -0.3689 -0.0301 -0.2270
 1753TFB     F322764   4.628   5.130   1.373  0.4059  0.1369  0.4124
 1753TFB     F422765   4.810   5.040   1.462  0.7123 -0.6768 -0.6296
 1754TFB      B22766   2.109   1.914   0.058  0.8013 -0.5977  0.7000
 1754TFB     F122767   1.988   1.883   0.121  0.0922 -0.4970  0.1850
 1754TFB     F222768   2.103   1.832  -0.056  0.1650 -0.3094 -0.1880
 1754TFB     F322769   2.110   2.044   0.019 -0.0460 -0.1444 -0.0223
 1754TFB     F422770   2.215   1.896   0.143  0.1099  0.0478 -0.7350
 1755TFB      B22771   5.220   0.612   3.313 -0.7991 -0.3125 -0.0300
 1755TFB     F122772   5.103   0.669   3.358 -0.5361 -0.0283 -0.3464
 1755TFB     F222773   5.314   0.616   3.420 -0.3556  0.2915  0.1608
 1755TFB     F322774   5.205   0.488   3.248  0.5057  0.0784 -0.1999
 1755TFB     F422775   5.267   0.711   3.219  0.1953 -0.3374 -0.3428
 1756TFB      B22776   1.674   0.461   2.908 -0.8254 -0.4984 -0.0519
 1756TFB     F122777   1.789   0.480   2.990 -0.1176  0.2901 -0.2191
 1756TFB     F222778   1.568   0.500   2.986 -0.4565 -0.6341  0.1034
 1756TFB     F322779   1.685   0.546   2.800  0.2375 -0.5663  0.5828
 1756TFB     F422780   1.674   0.327   2.871  0.4328 -0.0239  0.2489
 1757TFB      B22781   0.504   0.392   2.056 -0.2356 -0.2201  0.4690
 1757TFB     F122782   0.470   0.514   1.996 -0.2860 -0.1790 -0.1615
 1757TFB     F222783   0.620   0.408   2.131  0.1710 -0.6410 -0.1637
 1757TFB     F322784   0.405   0.338   2.132  0.5273 -0.4614  0.0176
 1757TFB     F422785   0.534   0.304   1.957  0.0817  0.2684 -0.0127
 1758TFB      B22786   5.376   6.337   2.469  0.3130  0.0959  0.8425
 1758TFB     F122787   5.408   6.316   2.335  0.0452 -0.0581  0.4097
 1758TFB     F222788   5.298   6.446   2.484  0.0751 -0.3623  0.1973
 1758TFB     F322789   5.298   6.231   2.522 -0.3329 -0.0606 -0.0036
 1758TFB     F422790   5.492   6.346   2.537 -0.0021  0.2313 -0.0884
 1759TFB      B22791   5.429   3.357   0.403  0.5721  0.0623 -0.1136
 1759TFB     F122792   5.536   3.440   0.429 -0.4194 -0.1243 -0.3611
 1759TFB     F222793   5.361   3.322   0.523  0.9617 -0.1130  0.1560
 1759TFB     F322794   5.347   3.438   0.331 -0.4678 -1.2818  0.6394
 1759TFB     F422795   5.478   3.248   0.325 -0.2084  0.0224 -0.2188
 1760TFB      B22796   0.705   1.158   4.055 -0.4369 -0.3339  0.3523
 1760TFB     F122797   0.641   1.111   3.941 -0.7539 -0.4362 -0.0105
 1760TFB     F222798   0.627   1.259   4.106 -0.1178 -0.0384 -1.0548
 1760TFB     F322799   0.729   1.059   4.147  0.6975  0.0768 -0.4157
 1760TFB     F422800   0.822   1.215   4.013  0.2605 -0.0681  0.0823
 1761TFB      B22801   4.330   0.126   2.143 -0.2848  0.9708  0.3421
 1761TFB     F122802   4.458   0.093   2.100  0.2082  0.2385  0.1037
 1761TFB     F222803   4.303   0.262   2.127 -0.5177  0.8392 -0.6214
 1761TFB     F322804   4.235   0.052   2.085  0.1638 -0.3404  0.6618
 1761TFB     F422805   4.318   0.092   2.281  0.1560 -0.7535  0.0258
 1762TFB      B22806   4.545   4.493   2.981  0.4879 -0.3882 -0.7465
 1762TFB     F122807   4.541   4.619   3.037  0.1050  0.2749  0.1170
 1762TFB     F222808   4.494   4.499   2.856 -0.3514 -0.0820 -0.1390
 1762TFB     F322809   4.683   4.458   2.973 -0.2736  0.0935 -0.4442
 1762TFB     F422810   4.480   4.387   3.038 -0.1173 -0.0911 -0.0703
 1763TFB      B22811   1.398   5.846   4.225 -0.1090 -0.7047 -0.1402
 1763TFB     F122812   1.366   5.727   4.295 -0.0488  0.1964 -0.2080
 1763TFB     F222813   1.533   5.862   4.222 -0.2782 -0.1325  0.6728
 1763TFB     F322814   1.346   5.838   4.095  0.0963  0.5532  0.3517
 1763TFB     F422815   1.348   5.950   4.297 -0.0843 -0.4278 -0.0771
 1764TFB      B22816   2.329   3.954   5.975 -0.0606 -0.0789  0.1396
 1764TFB     F122817   2.279   3.943   5.849  0.0485 -0.3975  0.0629
 1764TFB     F222818   2.421   3.846   5.974 -0.2545 -0.1371  0.2817
 1764TFB     F322819   2.395   4.072   5.997 -0.3789 -0.7088  0.2047
 1764TFB     F422820   2.225   3.938   6.063  0.5071 -0.0647 -0.3076
 1765TFB      B22821   3.589   2.951   4.879 -0.6776 -0.0631  0.2301
 1765TFB     F122822   3.504   3.054   4.910  0.2122  0.2579 -0.3598
 1765TFB     F222823   3.652   2.899   4.991  0.7327 -0.1047 -0.0301
 1765TFB     F322824   3.529   2.851   4.799 -0.2298 -0.3167 -0.0002
 1765TFB     F422825   3.691   3.008   4.808 -0.2061  0.3672  0.0443
 1766TFB      B22826   1.606   2.390   1.976 -0.5200 -0.3654 -0.5350
 1766TFB     F122827   1.639   2.255   1.977  0.3697  0.4826 -0.1436
 1766TFB     F222828   1.655   2.462   2.082  0.0030  0.1179 -0.2174
 1766TFB     F322829   1.652   2.449   1.864  0.1266  0.1130  0.6719
 1766TFB     F422830   1.473   2.393   1.971  0.3500 -0.0224  0.1093
 1767TFB      B22831   5.719   2.729   3.478 -0.5188  0.5793  0.1141
 1767TFB     F122832   5.764   2.760   3.606  0.1061  0.4522 -0.0285
 1767TFB     F222833   5.623   2.622   3.491 -0.2384 -0.1786  0.3674
 1767TFB     F322834   5.665   2.843   3.424  0.3712  0.3206  0.0092
 1767TFB     F422835   5.820   2.686   3.391  0.5348 -0.1166 -0.4334
 1768TFB      B22836   0.238   3.846   2.602 -0.8020  0.6167  0.1344
 1768TFB     F122837   0.360   3.794   2.571  0.2781 -0.5526 -0.5419
 1768TFB     F222838   0.269   3.984   2.637  0.4671 -0.0144 -0.3348
 1768TFB     F322839   0.163   3.840   2.489 -0.1492  0.1852 -0.7670
 1768TFB     F422840   0.167   3.779   2.698 -0.3161  0.1281 -0.1750
 1769TFB      B22841   1.594   5.768   4.860  0.3368 -0.2637  0.1863
 1769TFB     F122842   1.703   5.712   4.926  0.3814 -0.2418  0.5608
 1769TFB     F222843   1.587   5.900   4.878  0.5126  0.7230 -0.5986
 1769TFB     F322844   1.591   5.737   4.723  0.2002  0.0492 -0.4488
 1769TFB     F422845   1.478   5.713   4.909 -0.0356 -0.4405  0.0901
 1770TFB      B22846   2.412   5.129   5.070  1.0315  0.1187  0.2868
 1770TFB     F122847   2.317   5.168   5.171 -0.4357  0.1510 -0.2194
 1770TFB     F222848   2.370   5.150   4.937  0.1934  0.3096 -0.6023
 1770TFB     F322849   2.523   5.209   5.083 -0.1899 -0.5284  0.1854
 1770TFB     F422850   2.438   4.990   5.071  0.3774  0.0385 -0.3320
 1771TFB      B22851   4.096   6.220   0.500  0.9269 -0.8157 -0.0790
 1771TFB     F122852   4.053   6.088   0.530  0.0332 -0.0161  0.1767
 1771TFB     F222853   4.127   6.289   0.620 -0.1944 -0.2252  0.4647
 1771TFB     F322854   4.210   6.201   0.429  0.0621 -0.1900 -0.2241
 1771TFB     F422855   3.991   6.282   0.432 -0.1129 -0.2662  0.2698
 1772TFB      B22856   3.922   3.481   2.307  0.3407  0.1548  0.6683
 1772TFB     F122857   3.789   3.473   2.280 -0.4320  0.2444 -0.0433
 1772TFB     F222858   3.955   3.381   2.391 -0.3325  0.1532 -0.1048
 1772TFB     F322859   3.998   3.479   2.199  0.3975 -0.0326 -0.4841
 1772TFB     F422860   3.937   3.607   2.362 -0.1384 -0.2921 -0.1017
 1773TFB      B22861   6.172   1.589   3.325  0.7878  0.3430 -0.4027
 1773TFB     F122862   6.240   1.707   3.373  0.1165  0.2045  0.5621
 1773TFB     F222863   6.037   1.587   3.352 -0.0613  0.5721 -0.1078
 1773TFB     F322864   6.176   1.578   3.180 -0.0651 -0.4349 -0.4137
 1773TFB     F422865   6.216   1.468   3.381 -0.0845  0.3331 -0.1237
 1774TFB      B22866   3.574   1.862   1.911  0.4074  0.3154 -0.2271
 1774TFB     F122867   3.512   1.851   1.790 -0.0541 -0.1638  0.1357
 1774TFB     F222868   3.693   1.786   1.918  0.7410  0.1101 -0.3901
 1774TFB     F322869   3.611   1.994   1.929  0.2962 -0.4142  0.4046
 1774TFB     F422870   3.490   1.841   2.018 -0.0156 -0.2706  0.4682
 1775TFB      B22871   6.320   0.930   2.366 -0.2858 -0.2142  0.3251
 1775TFB     F122872   6.341   0.973   2.503 -0.3158 -0.0324  0.6987
 1775TFB     F222873   6.188   0.893   2.341  0.0285  0.0279  0.2173
 1775TFB     F322874   6.337   1.030   2.279 -0.2433 -0.1683  0.4917
 1775TFB     F422875   6.394   0.816   2.337  0.2033 -0.0419  0.4245
 1776TFB      B22876   5.394   0.563   0.306 -0.0565  0.3709  0.3558
 1776TFB     F122877   5.406   0.500   0.183 -0.2018  0.5362  0.2137
 1776TFB     F222878   5.253   0.553   0.338 -0.9323 -0.0361 -0.1324
 1776TFB     F322879   5.470   0.487   0.387  0.3315 -0.1551 -0.2813
 1776TFB     F422880   5.436   0.700   0.312 -0.1234 -0.0838  0.1751
 1777TFB      B22881   4.451   3.518   4.445  0.4627  0.0892 -0.4240
 1777TFB     F122882   4.535   3.591   4.524  0.1471  0.2341  0.2039
 1777TFB     F222883   4.324   3.528   4.504 -0.1421 -0.0382 -0.4433
 1777TFB     F322884   4.445   3.560   4.312 -1.0636 -0.0578 -0.1069
 1777TFB     F422885   4.512   3.388   4.456  0.1049 -0.3567 -0.3401
 1778TFB      B22886   0.660   0.572   5.480  0.8307  0.0259 -0.3436
 1778TFB     F122887   0.748   0.587   5.377 -0.4407  0.0778 -0.1531
 1778TFB     F222888   0.550   0.495   5.442  0.7761 -0.1227  0.2341
 1778TFB     F322889   0.723   0.503   5.584  0.2291  0.6427 -0.6098
 1778TFB     F422890   0.603   0.691   5.524  0.1398  0.3623  0.6632
 1779TFB      B22891   2.690   1.934   1.065 -0.0395 -0.2051 -0.0341
 1779TFB     F122892   2.679   2.069   1.045 -0.5327  0.3386 -0.0341
 1779TFB     F222893   2.563   1.873   1.036 -0.1675 -0.6239 -0.5062
 1779TFB     F322894   2.785   1.892   0.973 -0.7617  0.5820 -0.0754
 1779TFB     F422895   2.718   1.902   1.197  0.3750 -0.2100  0.0447
 1780TFB      B22896   4.807   0.385   5.040 -0.3690  0.7554 -0.6837
 1780TFB     F122897   4.867   0.343   4.921  0.0471  0.2201  0.0739
 1780TFB     F222898   4.740   0.277   5.098 -0.0626 -0.3997  0.6502
 1780TFB     F322899   4.904   0.436   5.124 -0.0826 -0.6428 -0.5165
 1780TFB     F422900   4.723   0.489   5.000 -0.5105 -0.1216  0.1471
 1781TFB      B22901   1.743   4.466   1.072 -0.3336 -0.6887 -0.3394
 1781TFB     F122902   1.777   4.501   1.203 -0.6877  0.7152  0.1046
 1781TFB     F222903   1.786   4.336   1.064 -0.3960 -0.5482 -0.5524
 1781TFB     F322904   1.600   4.481   1.050  0.0147  0.0217 -0.4684
 1781TFB     F422905   1.823   4.542   0.981 -0.0733  0.4018 -0.2081
 1782TFB      B22906   5.060   5.897   2.556 -0.6427  0.0272 -0.1944
 1782TFB     F122907   4.991   5.780   2.571  0.2631 -0.2509  0.7300
 1782TFB     F222908   4.997   5.998   2.627  0.4143 -0.4276 -0.7050
 1782TFB     F322909   5.185   5.882   2.612  0.1953  0.1363  0.1089
 1782TFB     F422910   5.081   5.919   2.419 -0.0517 -0.2718 -0.2298
 1783TFB      B22911   0.571   2.759   2.858  0.1898  0.1157  0.6202
 1783TFB     F122912   0.452   2.767   2.931 -0.5309 -0.3678 -0.4093
 1783TFB     F222913   0.557   2.760   2.719 -0.1236  0.6795 -0.7395
 1783TFB     F322914   0.643   2.873   2.896 -0.2207  0.1339 -0.2035
 1783TFB     F422915   0.639   2.647   2.907  0.3534  0.3034  0.1298
 1784TFB      B22916   4.573   0.187   0.351  0.4319 -0.4050  0.2134
 1784TFB     F122917   4.624   0.205   0.478  0.3650 -0.4847  0.1687
 1784TFB     F222918   4.501   0.060   0.343 -0.3790  0.2113  0.1148
 1784TFB     F322919   4.478   0.284   0.325 -0.4702  0.3838 -0.1382
 1784TFB     F422920   4.675   0.207   0.263 -0.5461 -0.3055 -0.0331
 1785TFB      B22921   0.407   2.613   4.958  0.2686 -0.7563  0.5194
 1785TFB     F122922   0.274   2.571   4.938 -0.7651  0.4625 -0.4425
 1785TFB     F222923   0.496   2.539   4.878  0.2928  0.4034 -0.2124
 1785TFB     F322924   0.427   2.740   4.924  0.3624 -0.0173 -0.3072
 1785TFB     F422925   0.448   2.599   5.086  0.4032 -0.4691  0.0968
 1786TFB      B22926   5.629   1.353   2.333  0.0360  0.3246 -0.4875
 1786TFB     F122927   5.701   1.264   2.258  0.1650 -0.8448 -0.2445
 1786TFB     F222928   5.512   1.294   2.381  0.0227 -0.1200  0.1505
 1786TFB     F322929   5.700   1.395   2.442 -0.0176  0.0715  0.0966
 1786TFB     F422930   5.595   1.462   2.265  0.2037 -0.2479 -0.2472
 1787TFB      B22931   5.272   1.504   5.392  0.7699  1.1117 -0.6856
 1787TFB     F122932   5.184   1.395   5.367  0.6928  0.6822  0.2472
 1787TFB     F222933   5.209   1.601   5.471 -0.8244  0.2507 -0.0827
 1787TFB     F322934   5.392   1.470   5.450  0.5000  0.3837 -0.0229
 1787TFB     F422935   5.307   1.546   5.268  0.2077 -0.2330 -0.4422
 1788TFB      B22936   2.220   0.695   1.573  0.4434  0.0836  0.1040
 1788TFB     F122937   2.284   0.796   1.510 -0.2767 -0.0808 -0.5215
 1788TFB     F222938   2.119   0.646   1.490 -0.1686  0.1603  0.1847
 1788TFB     F322939   2.311   0.597   1.602 -0.1632  0.8606 -0.9669
 1788TFB     F422940   2.159   0.731   1.683 -0.2834  0.6252 -0.1678
 1789TFB      B22941   2.567   2.299   6.158 -1.0405 -1.0230 -0.2107
 1789TFB     F122942   2.474   2.194   6.137 -0.2072 -0.1281  0.4524
 1789TFB     F222943   2.585   2.365   6.036 -0.5759 -0.2791 -0.3764
 1789TFB     F322944   2.499   2.387   6.248  0.4402 -0.1722  0.0238
 1789TFB     F422945   2.688   2.245   6.199 -0.4215 -0.1361 -0.4903
 1790TFB      B22946   6.075   4.784   5.669  0.1876  0.7099  0.2067
 1790TFB     F122947   6.134   4.716   5.777  0.2129  0.3589  0.2890
 1790TFB     F222948   6.129   4.909   5.666 -0.0171 -0.2833 -0.1982
 1790TFB     F322949   6.098   4.718   5.546  0.5814  0.3701  0.4668
 1790TFB     F422950   5.941   4.798   5.693 -0.1988  0.0547 -0.2637
 1791TFB      B22951   6.021   1.128   5.273  0.0205  0.5507  0.0145
 1791TFB     F122952   5.908   1.173   5.349 -0.4172  0.1580 -0.1148
 1791TFB     F222953   6.073   1.237   5.221 -0.2518  0.1427  0.1298
 1791TFB     F322954   6.104   1.061   5.367  0.0439  0.4645  0.2033
 1791TFB     F422955   5.966   1.045   5.184 -0.2060 -0.0456 -0.1383
 1792TFB      B22956   1.177   2.308   5.759 -0.5504 -0.3545  0.8676
 1792TFB     F122957   1.319   2.298   5.737 -0.3673 -0.2100 -0.0997
 1792TFB     F222958   1.132   2.418   5.690  0.2917 -0.4738 -0.1289
 1792TFB     F322959   1.120   2.195   5.699 -0.0493 -0.1224  0.1835
 1792TFB     F422960   1.151   2.321   5.895  0.3142  0.4392 -0.1204
 1793TFB      B22961   1.376   1.278   2.868 -0.4140 -1.2631  0.0650
 1793TFB     F122962   1.241   1.298   2.852  0.0025  0.4594  0.2603
 1793TFB     F222963   1.441   1.346   2.755  0.2903 -0.0658 -0.2259
 1793TFB     F322964   1.413   1.324   2.993 -0.2251  0.6754 -0.2024
 1793TFB     F422965   1.410   1.146   2.869  0.2709  0.4828  0.2417
 1794TFB      B22966   1.391   0.953   1.506  0.2853  0.0470 -0.0446
 1794TFB     F122967   1.308   0.930   1.609  0.2949 -1.1360 -0.2303
 1794TFB     F222968   1.354   0.867   1.405  0.0430  0.2618 -0.0164
 1794TFB     F322969   1.374   1.081   1.467 -0.4418  0.3167  0.2570
 1794TFB     F422970   1.526   0.926   1.535 -0.1852  0.3840 -0.4234
 1795TFB      B22971   1.405   2.430   0.755 -0.0155 -0.0108 -0.0417
 1795TFB     F122972   1.447   2.558   0.740 -0.0644 -0.6836  0.0430
 1795TFB     F222973   1.495   2.347   0.821  0.3699  0.2984  0.2961
 1795TFB     F322974   1.290   2.445   0.842  0.3659 -0.6745  0.4562
 1795TFB     F422975   1.365   2.390   0.633 -0.1567 -0.5070 -0.5015
 1796TFB      B22976   2.532   1.872   4.579 -0.4241 -0.1910  0.2780
 1796TFB     F122977   2.657   1.910   4.535  0.1577 -0.0639 -0.2913
 1796TFB     F222978   2.458   1.975   4.636  0.4068  0.6970 -0.4624
 1796TFB     F322979   2.467   1.826   4.466  0.1570  0.3321  0.4350
 1796TFB     F422980   2.551   1.763   4.669  0.2916 -0.3380 -0.1139
 1797TFB      B22981   1.942   4.768   0.418  0.4517  0.8451  0.4775
 1797TFB     F122982   1.906   4.856   0.515 -0.5640  0.0216  0.2301
 1797TFB     F222983   2.052   4.824   0.353  0.1841 -0.0814 -0.1642
 1797TFB     F322984   1.989   4.655   0.484  0.6264  0.7827  0.4795
 1797TFB     F422985   1.852   4.743   0.317  0.8971 -0.1741 -0.5436
 1798TFB      B22986   6.144   2.408   6.237 -0.1606 -0.2332 -0.2165
 1798TFB     F122987   6.143   2.290   6.318  0.0108  0.1494  0.0930
 1798TFB     F222988   6.062   2.389   6.130  0.1062  0.3185  0.3308
 1798TFB     F322989   6.096   2.518   6.308 -0.1901  0.5632 -0.0111
 1798TFB     F422990   6.268   2.427   6.190 -0.7823 -0.2172 -0.2772
 1799TFB      B22991   1.740   5.055   1.053 -0.3598  0.2558 -0.1163
 1799TFB     F122992   1.747   5.115   1.181  0.1334 -0.0911 -0.2560
 1799TFB     F222993   1.685   4.931   1.063 -0.1046 -0.1195  0.1955
 1799TFB     F322994   1.667   5.124   0.968  0.2870 -0.0079 -0.4314
 1799TFB     F422995   1.865   5.049   1.001 -0.2646  0.1500 -0.0966
 1800TFB      B22996   5.643   1.774   4.771 -0.7926 -0.3069  0.0075
 1800TFB     F122997   5.531   1.796   4.704 -0.3463 -0.3279  0.6833
 1800TFB     F222998   5.740   1.846   4.715  0.3375  0.0681  0.7575
 1800TFB     F322999   5.626   1.818   4.903  0.6111 -0.6804  0.5386
 1800TFB     F423000   5.681   1.645   4.757 -0.3448 -0.4307 -0.3555
 1801TFB      B23001   3.190   1.409   3.535 -0.3964  0.6013  0.1521
 1801TFB     F123002   3.140   1.504   3.444  0.2936 -0.2444  0.0087
 1801TFB     F223003   3.094   1.359   3.625  0.3214  0.5255  0.3079
 1801TFB     F323004   3.254   1.309   3.465  0.4813  0.1763 -0.2390
 1801TFB     F423005   3.297   1.472   3.601 -0.0101  0.3499  0.2788
 1802TFB      B23006   6.238   3.014   5.153  0.7338  0.5625 -0.0660
 1802TFB     F123007   6.366   3.057   5.193  0.3875  0.3531  0.1025
 1802TFB     F223008   6.178   2.913   5.232  0.2905 -0.2861 -0.1920
 1802TFB     F323009   6.136   3.116   5.144 -0.1972  0.2853 -0.2988
 1802TFB     F423010   6.252   2.970   5.020  0.0449 -0.0656 -0.5564
 1803TFB      B23011   0.697   0.236   3.389 -0.1965  0.0743 -0.1621
 1803TFB     F123012   0.802   0.277   3.476  0.1129  0.1312 -0.2912
 1803TFB     F223013   0.638   0.125   3.441  0.1225 -0.0603  0.3918
 1803TFB     F323014   0.600   0.342   3.391 -0.2103  0.1481  0.2370
 1803TFB     F423015   0.752   0.220   3.259 -0.4388 -0.3292 -0.4610
 1804TFB      B23016   5.927   3.308   1.014 -0.8099  0.6736 -0.0529
 1804TFB     F123017   5.870   3.222   1.105 -0.3962  0.4972 -0.1244
 1804TFB     F223018   5.853   3.431   1.026 -0.1956  0.6668 -0.2675
 1804TFB     F323019   6.061   3.338   1.033 -0.0625  0.0450  0.1774
 1804TFB     F423020   5.900   3.252   0.880 -0.7502 -0.6140  0.1605
 1805TFB      B23021   3.847   2.522   3.438  0.0934 -0.0837 -0.4754
 1805TFB     F123022   3.829   2.633   3.522  0.3440 -0.9436 -0.1608
 1805TFB     F223023   3.748   2.535   3.336 -0.2557  0.0500  0.1881
 1805TFB     F323024   3.974   2.536   3.399  0.4164 -0.0396  0.3638
 1805TFB     F423025   3.824   2.400   3.499  0.1357 -0.0998 -0.4034
 1806TFB      B23026   4.382   2.242   5.279  0.7635  1.2340  0.8138
 1806TFB     F123027   4.288   2.331   5.230  0.3272  0.7588  0.5839
 1806TFB     F223028   4.499   2.247   5.203  0.4377  0.6929 -0.1598
 1806TFB     F323029   4.419   2.279   5.402  0.2525 -0.4146  0.2019
 1806TFB     F423030   4.332   2.114   5.285  0.0290  0.0900  0.1407
 1807TFB      B23031   4.816   0.715   3.738 -0.1625  0.7894  0.2074
 1807TFB     F123032   4.861   0.720   3.607  0.0264 -0.4027 -0.5943
 1807TFB     F223033   4.894   0.633   3.809 -0.0907  0.0901  0.1516
 1807TFB     F323034   4.823   0.849   3.781  0.2750 -0.2652  0.1518
 1807TFB     F423035   4.682   0.680   3.743  0.0722 -0.0319 -0.0167
 1808TFB      B23036   6.273   0.251   4.949 -0.0716  0.7353  0.3503
 1808TFB     F123037   6.270   0.325   5.069 -0.2406 -0.0354  0.1465
 1808TFB     F223038   6.379   0.279   4.875 -0.2146  0.1531 -0.5320
 1808TFB     F323039   6.272   0.113   4.992  0.1008 -0.7438  0.0315
 1808TFB     F423040   6.154   0.266   4.891  0.0414 -0.0904  0.4690
 1809TFB      B23041   3.550   2.119   1.157  0.2474  0.0330  0.0858
 1809TFB     F123042   3.523   2.106   1.294  0.2271  0.3920  0.5616
 1809TFB     F223043   3.524   2.003   1.081 -0.0571 -0.0544 -0.1392
 1809TFB     F323044   3.484   2.227   1.105 -0.3121 -0.3780 -0.3554
 1809TFB     F423045   3.679   2.148   1.134  0.1772  0.6157 -0.0824
 1810TFB      B23046   2.689   2.538   1.774 -0.6548  0.0116  0.1588
 1810TFB     F123047   2.825   2.516   1.793 -0.4331 -0.5599 -0.3030
 1810TFB     F223048   2.662   2.579   1.647  0.3179 -0.2829  0.0337
 1810TFB     F323049   2.625   2.421   1.788  0.9761  0.2263  0.9855
 1810TFB     F423050   2.630   2.612   1.871  0.0676  0.1359  0.5252
 1811TFB      B23051   0.094   1.148   3.727  0.2486  0.1377  0.6600
 1811TFB     F123052  -0.028   1.099   3.692  0.4439  0.1499  0.1028
 1811TFB     F223053   0.177   1.180   3.621 -0.0195  0.4932  0.0415
 1811TFB     F323054   0.071   1.277   3.783 -0.5024  0.3664 -0.3674
 1811TFB     F423055   0.147   1.069   3.827  0.5869  0.1309 -0.0918
 1812TFB      B23056   6.235   2.285   0.492  0.2539 -0.4323 -0.8041
 1812TFB     F123057   6.305   2.225   0.389  0.0962  0.2801 -0.1514
 1812TFB     F223058   6.265   2.419   0.492 -0.3514 -0.4363  0.0857
 1812TFB     F323059   6.102   2.270   0.482 -0.3470 -0.4225 -0.3429
 1812TFB     F423060   6.267   2.233   0.615  0.0337  0.5000 -0.1341
 1813TFB      B23061   0.071   0.238   1.356  0.1806  0.0420 -0.6422
 1813TFB     F123062   0.153   0.147   1.428  0.5755  0.9497 -0.2270
 1813TFB     F223063   0.004   0.173   1.259  0.0001  0.7956  0.1183
 1813TFB     F323064  -0.027   0.301   1.438  0.3032  0.3868  0.4619
 1813TFB     F423065   0.154   0.338   1.317  0.0910 -0.5468 -0.1147
 1814TFB      B23066   2.041   5.083   6.285  0.1274 -0.0467 -0.0361
 1814TFB     F123067   1.975   5.043   6.400  0.3355  0.4392 -0.0953
 1814TFB     F223068   2.051   4.970   6.207 -0.1162  0.0184  0.2923
 1814TFB     F323069   1.978   5.175   6.204  1.1575  0.1383  0.2482
 1814TFB     F423070   2.165   5.136   6.314 -0.2886  0.4411 -0.3058
 1815TFB      B23071   4.432   4.517   3.746  0.6110 -0.1477 -0.6716
 1815TFB     F123072   4.352   4.446   3.834  0.1089  0.4039  0.4123
 1815TFB     F223073   4.350   4.550   3.636 -0.1959 -0.2471  0.1564
 1815TFB     F323074   4.456   4.649   3.790  0.4222 -0.3373  0.0289
 1815TFB     F423075   4.540   4.442   3.699  0.0837 -0.0649 -0.1318
 1816TFB      B23076   2.694   0.795   3.160  0.3095 -0.6234 -0.1700
 1816TFB     F123077   2.717   0.662   3.136  0.4504 -0.2819 -0.3972
 1816TFB     F223078   2.739   0.824   3.288 -0.0501  0.0809 -0.3466
 1816TFB     F323079   2.754   0.877   3.068 -0.0773  0.6118  0.3791
 1816TFB     F423080   2.558   0.823   3.164  0.6805 -0.0216  0.2034
 1817TFB      B23081   3.177   4.699   3.439 -0.9285 -0.8446 -0.3927
 1817TFB     F123082   3.263   4.770   3.525 -0.3531 -0.7698  0.1518
 1817TFB     F223083   3.234   4.579   3.423  0.3617 -0.3386  0.1502
 1817TFB     F323084   3.050   4.692   3.496  0.2901 -0.0055  0.3578
 1817TFB     F423085   3.185   4.741   3.307  0.4097  0.1059  0.1096
 1818TFB      B23086   2.704   5.578   5.468  0.0873  0.2270 -0.8013
 1818TFB     F123087   2.683   5.704   5.514 -0.2736  0.4777 -0.7503
 1818TFB     F223088   2.720   5.568   5.331  0.5193 -0.3546  0.6304
 1818TFB     F323089   2.807   5.532   5.546 -0.4492  0.0344  0.1488
 1818TFB     F423090   2.599   5.490   5.505  0.4422 -0.1774  0.0764
 1819TFB      B23091   2.331   3.935   4.705  0.5252 -0.6673 -0.8678
 1819TFB     F123092   2.435   3.988   4.768  0.2544  0.5758  0.2551
 1819TFB     F223093   2.324   3.797   4.732  0.3010 -0.6360  0.3041
 1819TFB     F323094   2.223   4.002   4.746  0.0332 -0.2510 -0.5951
 1819TFB     F423095   2.357   3.947   4.569 -0.3919  0.0305 -0.4169
 1820TFB      B23096   2.905   5.817   4.747 -0.6180 -0.0769 -0.3228
 1820TFB     F123097   2.807   5.920   4.736 -0.3324 -0.0446 -0.3614
 1820TFB     F223098   2.900   5.743   4.632  0.1051 -0.2250  0.9741
 1820TFB     F323099   3.031   5.863   4.767  0.2844 -0.0974  0.3076
 1820TFB     F423100   2.863   5.750   4.859 -0.2146 -0.5319  0.1956
 1821TFB      B23101   2.686   5.168   2.828  0.1229 -0.0496  0.5036
 1821TFB     F123102   2.546   5.182   2.820 -0.6992  0.1014  0.1841
 1821TFB     F223103   2.718   5.042   2.879 -0.6008 -0.4183 -0.5281
 1821TFB     F323104   2.745   5.187   2.702  0.4464  0.4251 -0.7409
 1821TFB     F423105   2.735   5.264   2.914  0.0594  0.1664 -0.6862
 1822TFB      B23106   2.171   1.175   3.861  0.7369  0.5721 -0.4378
 1822TFB     F123107   2.274   1.196   3.947 -0.3268 -0.1145  0.7405
 1822TFB     F223108   2.063   1.230   3.931  0.4844  0.4221 -0.1291
 1822TFB     F323109   2.171   1.218   3.726 -0.0191  0.1131  0.1321
 1822TFB     F423110   2.149   1.039   3.864 -0.1037  0.4972  0.0258
 1823TFB      B23111   3.924   4.560   3.309  0.0639 -0.4197 -0.2773
 1823TFB     F123112   3.846   4.447   3.291  0.5673 -0.3005  0.1581
 1823TFB     F223113   4.038   4.541   3.386  0.3848 -0.3249  0.3209
 1823TFB     F323114   3.974   4.617   3.186 -0.3198  0.3294  0.4827
 1823TFB     F423115   3.859   4.657   3.380  0.3480  0.3229  0.4613
 1824TFB      B23116   1.933   0.800   4.777  0.2364  0.2557  0.0395
 1824TFB     F123117   1.941   0.902   4.872  0.5415 -0.1855 -0.3691
 1824TFB     F223118   2.056   0.744   4.764  0.2871 -0.0721  0.2163
 1824TFB     F323119   1.846   0.707   4.823  0.0868 -0.1485 -0.1922
 1824TFB     F423120   1.893   0.849   4.657 -0.0057  0.7613  0.0001
 1825TFB      B23121   5.642   4.159   3.821  0.3990  0.2029  0.2259
 1825TFB     F123122   5.509   4.144   3.778  0.5612 -0.0471 -0.4187
 1825TFB     F223123   5.666   4.105   3.954  0.1402  0.0165  0.3664
 1825TFB     F323124   5.728   4.097   3.737  0.3604  0.0114  0.0107
 1825TFB     F423125   5.667   4.298   3.814 -0.4468 -0.4340  0.4991
 1826TFB      B23126   1.070   4.174   0.165 -0.8549  0.3394 -0.4091
 1826TFB     F123127   0.971   4.107   0.089  0.1181 -0.2857  0.1364
 1826TFB     F223128   1.086   4.308   0.121 -0.0974 -0.0102  0.2072
 1826TFB     F323129   1.035   4.162   0.299  0.2327  0.2796 -0.2313
 1826TFB     F423130   1.194   4.109   0.147  0.2862 -0.0013  0.1105
 1827TFB      B23131   2.263   5.676   2.275 -0.3710  0.5970 -1.0319
 1827TFB     F123132   2.169   5.635   2.364  0.3081 -0.1471 -0.4320
 1827TFB     F223133   2.367   5.717   2.349  0.2558 -0.0296 -0.1148
 1827TFB     F323134   2.296   5.572   2.199  0.5152 -0.1586  0.3078
 1827TFB     F423135   2.211   5.779   2.193  0.3687  0.3403  0.0859
 1828TFB      B23136   3.154   6.244   4.676 -0.4123 -0.0452  0.6605
 1828TFB     F123137   3.160   6.215   4.810  0.5856  0.2602  0.1126
 1828TFB     F223138   3.053   6.345   4.653 -0.0474  0.4914  0.5932
 1828TFB     F323139   3.273   6.301   4.643 -0.3844  0.6269 -0.1110
 1828TFB     F423140   3.128   6.135   4.603  0.1606  0.2007  0.2712
 1829TFB      B23141   3.252   5.895   0.499 -0.5763  0.3204 -0.1612
 1829TFB     F123142   3.260   6.015   0.570  0.2080 -0.1176 -0.3181
 1829TFB     F223143   3.295   5.913   0.368  0.3883 -0.2475  0.5752
 1829TFB     F323144   3.349   5.809   0.552 -0.4985  0.1054 -0.1379
 1829TFB     F423145   3.125   5.835   0.504  0.0659  0.1133  0.1033
 1830TFB      B23146   0.752   6.044   1.271  0.4513 -0.5558 -0.4515
 1830TFB     F123147   0.626   6.027   1.311 -0.4871 -0.4833  0.2561
 1830TFB     F223148   0.773   5.975   1.153  0.0119  0.2597  0.3758
 1830TFB     F323149   0.776   6.177   1.250 -0.1091  0.2727 -0.4628
 1830TFB     F423150   0.837   6.019   1.377  0.2474  0.1021 -0.0287
 1831TFB      B23151   5.010   3.356   6.062  0.1671  0.3521  0.0841
 1831TFB     F123152   4.957   3.473   6.117 -0.0035 -0.2519 -0.0625
 1831TFB     F223153   4.943   3.248   6.117  0.0382  0.4283 -0.4392
 1831TFB     F323154   4.990   3.343   5.927  0.1376 -0.4080  0.7471
 1831TFB     F423155   5.140   3.345   6.088  0.4796  0.6304  0.0300
 1832TFB      B23156   1.780   5.914   2.464 -0.2944 -0.1886 -0.7529
 1832TFB     F123157   1.727   5.864   2.581  0.5118 -0.2055  0.2233
 1832TFB     F223158   1.675   5.940   2.383  0.1152  0.2523  0.1935
 1832TFB     F323159   1.856   6.024   2.478  0.6698 -0.3196 -0.1429
 1832TFB     F423160   1.853   5.810   2.407  0.3578  0.2233  0.2221
 1833TFB      B23161   1.543   4.006   1.329 -0.0420 -0.9846  0.7068
 1833TFB     F123162   1.605   4.117   1.268  0.0688 -0.4398  0.3962
 1833TFB     F223163   1.630   3.932   1.408  0.6213 -0.7349 -0.5102
 1833TFB     F323164   1.441   4.053   1.405  0.5301 -0.1405 -0.0259
 1833TFB     F423165   1.498   3.917   1.232 -0.2307 -0.1874  0.0982
 1834TFB      B23166   5.704   0.897   1.377  0.9224 -0.0260 -0.2718
 1834TFB     F123167   5.839   0.929   1.365 -0.1851  0.5285  0.2453
 1834TFB     F223168   5.675   0.768   1.335 -0.5378  0.3000  0.5561
 1834TFB     F323169   5.674   0.907   1.514 -0.1973 -0.1183  0.5507
 1834TFB     F423170   5.623   0.983   1.304 -0.5273  0.4982  0.6045
 1835TFB      B23171   6.327   6.171   3.211 -0.5578 -0.3127  0.0466
 1835TFB     F123172   6.250   6.138   3.323  0.4355 -0.2603  0.2358
 1835TFB     F223173   6.253   6.126   3.104  0.0037  0.3084  0.3833
 1835TFB     F323174   6.341   6.315   3.194  0.1667 -0.6421  0.2835
 1835TFB     F423175   6.445   6.105   3.228 -0.2324 -0.1874  0.1498
 1836TFB      B23176   1.776   4.221   3.614 -0.1924  0.3197 -0.5082
 1836TFB     F123177   1.777   4.077   3.603  0.1197  0.0739 -0.4322
 1836TFB     F223178   1.737   4.293   3.500 -0.4192 -0.2154 -0.4447
 1836TFB     F323179   1.681   4.259   3.710 -0.1658  0.5082  0.1207
 1836TFB     F423180   1.903   4.263   3.648 -0.5992 -0.4134  0.9764
 1837TFB      B23181   0.251   4.095   5.721  0.3932 -0.2358 -0.7569
 1837TFB     F123182   0.367   4.100   5.641 -0.4840  0.6235  0.3028
 1837TFB     F223183   0.183   4.210   5.686  0.0237  0.1898  0.0708
 1837TFB     F323184   0.173   3.982   5.702  0.1240  0.4413  0.2455
 1837TFB     F423185   0.292   4.091   5.855  0.8210 -0.7009  0.0159
 1838TFB      B23186   0.770   3.432   0.345 -1.3226 -0.8849 -0.1165
 1838TFB     F123187   0.847   3.520   0.266 -0.0872  0.2550  0.3491
 1838TFB     F223188   0.717   3.507   0.453 -0.1595  0.0717  0.0565
 1838TFB     F323189   0.678   3.370   0.266 -0.7556  0.2735 -0.0783
 1838TFB     F423190   0.862   3.338   0.392  0.0826  0.1339 -0.1355
 1839TFB      B23191   2.651   0.556   6.030  0.7702  0.9562 -0.5526
 1839TFB     F123192   2.583   0.452   5.972 -0.4350 -0.2005 -0.1864
 1839TFB     F223193   2.570   0.670   6.024 -0.2290 -0.8394 -0.1439
 1839TFB     F323194   2.663   0.529   6.166 -0.5727  0.1055 -0.3853
 1839TFB     F423195   2.772   0.568   5.966  0.4040  0.1056 -0.1617
 1840TFB      B23196   4.280   5.063   0.038  0.7059 -0.8725  0.4993
 1840TFB     F123197   4.402   5.089  -0.014  0.3399  0.2113 -0.3011
 1840TFB     F223198   4.310   5.015   0.161 -0.3509  0.0872  0.2630
 1840TFB     F323199   4.200   5.176   0.051  0.4936  0.5019 -0.0455
 1840TFB     F423200   4.217   4.973  -0.044  0.0036  0.1429  0.1986
 1841TFB      B23201   6.278   5.872   4.228  0.3401  1.1660  0.0940
 1841TFB     F123202   6.158   5.805   4.231 -0.3454 -0.0629 -0.6401
 1841TFB     F223203   6.276   5.963   4.124 -0.3043  0.5684 -0.1567
 1841TFB     F323204   6.307   5.945   4.350  0.0774 -0.1073 -0.1697
 1841TFB     F423205   6.367   5.766   4.220 -0.0305 -0.0516  0.1634
 1842TFB      B23206   2.137   6.188   3.916  0.3079 -0.4817 -0.3883
 1842TFB     F123207   2.253   6.119   3.884  0.8974  0.2868 -0.2895
 1842TFB     F223208   2.123   6.181   4.050  0.4428 -0.2034  0.4690
 1842TFB     F323209   2.143   6.325   3.883  0.1543 -0.2299  0.2826
 1842TFB     F423210   2.038   6.130   3.847  0.0876 -0.0465 -0.4167
 1843TFB      B23211   6.249   5.123   1.068 -0.9836 -0.5207  0.4055
 1843TFB     F123212   6.356   5.108   0.984 -0.0291  0.0990 -0.2350
 1843TFB     F223213   6.144   5.035   1.048 -0.3821  0.2725  1.1825
 1843TFB     F323214   6.310   5.092   1.189 -0.1707 -0.6068 -0.0486
 1843TFB     F423215   6.198   5.248   1.079  0.4313 -0.3652  0.1200
 1844TFB      B23216   2.878   0.202   5.749 -0.1888 -0.1436 -0.3083
 1844TFB     F123217   2.854   0.301   5.657  0.2454 -0.5535 -0.0043
 1844TFB     F223218   2.747   0.154   5.773  0.1006  0.0346 -0.4886
 1844TFB     F323219   2.944   0.099   5.686  0.0031  0.0014  0.1222
 1844TFB     F423220   2.939   0.240   5.863  0.1749 -0.9185  0.0407
 1845TFB      B23221   1.640   3.816   3.060  0.8103 -0.4267 -0.0590
 1845TFB     F123222   1.755   3.783   3.121 -0.2904  0.3986  0.2138
 1845TFB     F223223   1.565   3.704   3.061 -0.2626  0.1838 -0.1963
 1845TFB     F323224   1.586   3.911   3.139 -0.5420 -1.2347  0.1794
 1845TFB     F423225   1.666   3.857   2.923  0.4533 -0.5035 -0.1136
 1846TFB      B23226   0.280   3.133   2.526 -0.0461 -0.2887 -0.6173
 1846TFB     F123227   0.168   3.132   2.598  0.4342  1.3927  0.1333
 1846TFB     F223228   0.253   3.153   2.395  0.0481 -0.0647 -0.2916
 1846TFB     F323229   0.378   3.226   2.560 -0.1150 -0.7057  0.1726
 1846TFB     F423230   0.352   3.012   2.544  0.0194 -0.1619  0.1256
 1847TFB      B23231   4.262   6.308   5.170  0.3535  0.4615 -0.4690
 1847TFB     F123232   4.390   6.351   5.121  0.2204  0.6092 -0.1792
 1847TFB     F223233   4.252   6.167   5.171 -0.0712 -0.6284  0.6292
 1847TFB     F323234   4.235   6.354   5.296  0.2665 -0.2028  0.7144
 1847TFB     F423235   4.160   6.363   5.089 -0.1139 -0.4328 -0.3886
 1848TFB      B23236   3.001   2.355   2.403  0.4381  0.0082 -0.9457
 1848TFB     F123237   2.993   2.458   2.309 -0.0953  0.0344  0.0476
 1848TFB     F223238   2.916   2.369   2.515 -0.0460 -0.2900 -0.6637
 1848TFB     F323239   2.952   2.247   2.325 -0.1710  0.0353 -0.1849
 1848TFB     F423240   3.129   2.326   2.444 -0.2885  0.1339 -0.1622
 1849TFB      B23241   5.498   3.051   1.504 -0.1421 -0.0596  0.4118
 1849TFB     F123242   5.509   2.937   1.587  0.4177  0.0764  0.1095
 1849TFB     F223243   5.598   3.028   1.413 -0.1415 -0.4735  0.0917
 1849TFB     F323244   5.374   3.047   1.449 -0.0837  0.1221 -0.3696
 1849TFB     F423245   5.531   3.164   1.580 -0.4018 -0.6182  0.0361
 1850TFB      B23246   6.268   3.442   5.603 -0.1919 -0.0772 -0.7293
 1850TFB     F123247   6.190   3.548   5.566  0.5598  0.1021  0.4780
 1850TFB     F223248   6.302   3.458   5.742 -0.6799 -0.0477 -0.0835
 1850TFB     F323249   6.194   3.331   5.578  0.5039 -0.4863  0.6648
 1850TFB     F423250   6.391   3.439   5.532  0.0072 -0.2112  0.3242
 1851TFB      B23251   0.661   2.969   2.096 -0.5987  0.0209  0.6780
 1851TFB     F123252   0.706   2.837   2.091 -0.3238 -0.1021 -0.0711
 1851TFB     F223253   0.770   3.045   2.132  0.5120 -0.2512 -0.4172
 1851TFB     F323254   0.608   3.013   1.974  0.0935  0.0545  0.0597
 1851TFB     F423255   0.569   2.971   2.198  0.1541 -0.2391  0.5413
 1852TFB      B23256   0.447   1.905   2.285 -0.6515 -0.0171  0.1066
 1852TFB     F123257   0.444   1.772   2.288 -0.6488  0.2724  0.1867
 1852TFB     F223258   0.426   1.947   2.408 -0.2620 -0.6193  0.0550
 1852TFB     F323259   0.577   1.929   2.238  0.1178 -0.2760 -0.2772
 1852TFB     F423260   0.362   1.959   2.189  0.1976 -0.3466  0.6621
 1853TFB      B23261   4.203   1.647   1.288  0.1590 -0.1813 -0.2309
 1853TFB     F123262   4.181   1.531   1.367 -0.0204 -0.3324 -0.0895
 1853TFB     F223263   4.309   1.726   1.334  0.2698  0.0609  0.4445
 1853TFB     F323264   4.241   1.624   1.160  0.1455 -0.1459 -0.4233
 1853TFB     F423265   4.084   1.721   1.283  0.1659  0.4636 -0.2318
 1854TFB      B23266   3.353   3.029   0.880 -0.2539  0.0073  0.5775
 1854TFB     F123267   3.403   2.904   0.851  0.3862  0.1437 -0.2233
 1854TFB     F223268   3.424   3.140   0.828  0.4710  0.0308 -0.2990
 1854TFB     F323269   3.217   3.028   0.844 -0.5218  0.3011  0.1210
 1854TFB     F423270   3.339   3.038   1.018 -0.1172  0.0179 -0.0641
 1855TFB      B23271   5.864   5.521   4.650 -0.1271 -0.6228 -0.5949
 1855TFB     F123272   5.987   5.570   4.611 -0.0476 -0.0001 -0.0400
 1855TFB     F223273   5.898   5.399   4.714 -0.0364  0.4631 -0.2366
 1855TFB     F323274   5.801   5.611   4.742  0.1642 -0.0917  0.2295
 1855TFB     F423275   5.772   5.510   4.545  0.0471 -0.1805 -0.3304
 1856TFB      B23276   2.151   4.764   3.653 -0.0297 -0.3541  0.6505
 1856TFB     F123277   2.206   4.858   3.566 -0.1852  0.6186  0.0485
 1856TFB     F223278   2.081   4.827   3.762  0.1546 -0.2252 -0.1757
 1856TFB     F323279   2.057   4.687   3.581  0.1018 -0.7715 -0.0805
 1856TFB     F423280   2.245   4.681   3.710 -0.3697  0.2835 -0.2529
 1857TFB      B23281   3.982   2.430   4.140 -0.2552 -0.3675 -1.1970
 1857TFB     F123282   3.849   2.430   4.102  0.4553 -0.2066  0.7656
 1857TFB     F223283   4.000   2.491   4.259 -0.3195 -0.0173 -0.0849
 1857TFB     F323284   4.029   2.305   4.148 -0.1227  0.2188 -0.5514
 1857TFB     F423285   4.066   2.490   4.044  0.0475  0.6661  0.2864
 1858TFB      B23286   1.241   5.624   0.655  0.1129 -0.6054  0.4373
 1858TFB     F123287   1.172   5.647   0.540 -0.0547 -0.1312 -0.1661
 1858TFB     F223288   1.377   5.614   0.635 -0.4259  0.0465  0.5411
 1858TFB     F323289   1.207   5.734   0.730 -0.0081  0.6405 -0.1887
 1858TFB     F423290   1.190   5.513   0.714  0.0824  0.0001  0.5178
 1859TFB      B23291   1.235   0.989   0.822  0.3488 -0.0453 -0.1862
 1859TFB     F123292   1.184   0.897   0.732 -0.3512 -0.0724 -0.1514
 1859TFB     F223293   1.363   1.036   0.777 -0.4416 -0.1201  0.1397
 1859TFB     F323294   1.159   1.095   0.830 -0.1863  0.3664  0.0676
 1859TFB     F423295   1.238   0.915   0.936 -0.6108 -0.5758  0.5108
 1860TFB      B23296   4.257   1.724   2.564  0.1004 -0.1868 -0.4072
 1860TFB     F123297   4.364   1.733   2.469 -0.1087 -0.3921  0.0183
 1860TFB     F223298   4.173   1.613   2.532 -0.0818 -0.3264  0.3367
 1860TFB     F323299   4.313   1.713   2.697  0.3120 -0.4472 -0.0153
 1860TFB     F423300   4.188   1.841   2.555 -0.2074  0.3042 -0.0453
 1861TFB      B23301   3.007   5.515   3.520  0.1769  0.3339  0.3124
 1861TFB     F123302   2.881   5.484   3.471 -0.4931  0.4763 -0.5640
 1861TFB     F223303   3.050   5.419   3.601  0.3280  0.5340  0.0778
 1861TFB     F323304   3.093   5.517   3.417 -0.4080 -0.1203 -0.0114
 1861TFB     F423305   3.009   5.634   3.592  0.1553 -0.0040 -0.0069
 1862TFB      B23306   2.408   6.341   3.215  0.3323  0.3672  0.5653
 1862TFB     F123307   2.406   6.246   3.316  0.1102  0.1215 -0.1369
 1862TFB     F223308   2.542   6.364   3.185  0.0029  0.2522 -0.1869
 1862TFB     F323309   2.338   6.298   3.106  0.0066 -0.0848  0.2655
 1862TFB     F423310   2.374   6.462   3.257 -0.1500 -0.2289 -0.7453
 1863TFB      B23311   2.212   3.671   2.349 -0.5578  0.3684  0.2933
 1863TFB     F123312   2.108   3.678   2.260  0.1892  0.2147  0.2930
 1863TFB     F223313   2.174   3.684   2.483  0.1391 -0.5024  0.1999
 1863TFB     F323314   2.286   3.556   2.343  0.3613 -0.5609  0.2097
 1863TFB     F423315   2.299   3.780   2.318  0.6350  0.0176 -0.1989
 1864TFB      B23316   2.209   4.584   5.486 -0.5444 -0.1899 -0.0491
 1864TFB     F123317   2.077   4.620   5.467 -0.3423 -0.2199 -0.0772
 1864TFB     F223318   2.220   4.463   5.540 -0.3924 -0.4594  0.1970
 1864TFB     F323319   2.262   4.570   5.356 -0.0131 -0.0466  0.2618
 1864TFB     F423320   2.280   4.676   5.560 -0.3371 -0.5412  0.0678
 1865TFB      B23321   1.984   1.302   1.776 -0.2363 -1.1908  0.4262
 1865TFB     F123322   2.013   1.439   1.777  0.2714  0.4046  0.3405
 1865TFB     F223323   1.929   1.259   1.662 -0.2919 -0.3944 -0.1180
 1865TFB     F323324   2.097   1.228   1.795 -0.1897 -0.1360  0.3468
 1865TFB     F423325   1.901   1.276   1.886 -0.4461 -0.3703  0.4727
 1866TFB      B23326   2.558   1.060   4.552  0.4897  0.0346 -0.5261
 1866TFB     F123327   2.487   1.139   4.634 -0.3884 -0.2065  0.1480
 1866TFB     F223328   2.619   0.948   4.596  0.3586 -0.1899 -0.4436
 1866TFB     F323329   2.451   1.018   4.471 -0.3309 -0.6531 -0.2213
 1866TFB     F423330   2.640   1.138   4.467  0.2496  0.2654 -0.2496
 1867TFB      B23331   4.110   4.201   4.494 -0.5681  0.8696 -0.4770
 1867TFB     F123332   4.145   4.254   4.369 -0.0517 -0.4670  0.4403
 1867TFB     F223333   4.007   4.271   4.549  0.2193 -0.0650  0.2206
 1867TFB     F323334   4.068   4.071   4.492  0.1261 -0.0217 -0.1185
 1867TFB     F423335   4.224   4.207   4.582 -0.0634  0.2768  0.0712
 1868TFB      B23336   5.831   3.733   4.147 -0.1711 -0.1630 -0.7178
 1868TFB     F123337   5.690   3.704   4.162  0.1183  0.1935  0.1919
 1868TFB     F223338   5.867   3.721   4.014 -0.4667  0.0877 -0.0570
 1868TFB     F323339   5.864   3.856   4.196  0.0291  0.3825 -0.2241
 1868TFB     F423340   5.898   3.638   4.231 -0.0663 -0.5118  0.0839
 1869TFB      B23341   1.125   5.466   3.349  0.1344 -0.8386 -0.5054
 1869TFB     F123342   1.019   5.379   3.323 -0.4540  0.0486 -0.1121
 1869TFB     F223343   1.074   5.595   3.349  0.1033 -0.4613  0.0090
 1869TFB     F323344   1.201   5.433   3.456  0.1015  0.1207 -0.4407
 1869TFB     F423345   1.212   5.466   3.237 -0.0731 -0.0009 -0.4796
 1870TFB      B23346   2.839   1.458   4.940  0.0013 -0.3515  0.0533
 1870TFB     F123347   2.930   1.488   4.847 -0.1606  0.4813 -0.2573
 1870TFB     F223348   2.717   1.410   4.874 -0.2996  0.4168  0.2011
 1870TFB     F323349   2.885   1.345   5.016  0.1168  0.5654 -0.4668
 1870TFB     F423350   2.796   1.553   5.029 -0.2565 -0.5453 -0.3345
 1871TFB      B23351   2.405   0.598   2.716  0.0581 -0.0868  0.3534
 1871TFB     F123352   2.468   0.488   2.778  0.0226  0.0318 -0.2493
 1871TFB     F223353   2.468   0.722   2.739 -0.2066  0.5216  0.1222
 1871TFB     F323354   2.412   0.584   2.580 -0.4526 -0.0076  0.1306
 1871TFB     F423355   2.262   0.597   2.754 -0.5795 -0.0109 -0.2734
 1872TFB      B23356   0.025   4.511   2.809 -0.6954  0.5189 -0.5035
 1872TFB     F123357   0.065   4.619   2.891  0.2039 -0.5337  0.3580
 1872TFB     F223358   0.006   4.390   2.883 -0.3299  0.1662 -0.3435
 1872TFB     F323359  -0.089   4.525   2.732 -0.2480 -0.3497  0.1192
 1872TFB     F423360   0.128   4.503   2.721 -0.1022 -0.2049 -0.3346
 1873TFB      B23361   0.222   4.710   3.358  1.0928  0.2110 -0.4026
 1873TFB     F123362   0.221   4.662   3.489 -0.0531 -0.2346  0.6552
 1873TFB     F223363   0.108   4.654   3.294 -0.2317 -0.3038 -0.1866
 1873TFB     F323364   0.220   4.848   3.355  0.4424 -0.1816  0.0920
 1873TFB     F423365   0.331   4.664   3.295 -0.3689 -0.0848  0.1091
 1874TFB      B23366   0.646   0.085   0.447  1.0549  0.5422  0.0847
 1874TFB     F123367   0.593   0.068   0.321  0.2949  0.0752  0.4425
 1874TFB     F223368   0.743  -0.006   0.485 -0.5649 -0.1774 -0.4535
 1874TFB     F323369   0.709   0.207   0.436  0.0623 -0.4770 -0.3808
 1874TFB     F423370   0.545   0.091   0.544  1.0524  0.2748  0.4248
 1875TFB      B23371   4.685   6.264   5.843  0.6666  0.1599  0.1302
 1875TFB     F123372   4.746   6.363   5.917  0.6856 -0.2123  0.1408
 1875TFB     F223373   4.551   6.286   5.830 -0.1923  0.2653 -0.2192
 1875TFB     F323374   4.732   6.247   5.714  0.0898  0.0098 -0.6565
 1875TFB     F423375   4.694   6.151   5.933  0.1969  0.0185  0.2118
 1876TFB      B23376   4.032   4.429   2.612  0.1478 -0.5026 -0.1246
 1876TFB     F123377   4.165   4.413   2.641 -0.3332  0.0968 -0.1053
 1876TFB     F223378   3.988   4.374   2.492  0.1876  0.3117  0.1384
 1876TFB     F323379   3.961   4.376   2.718 -0.5413  0.1160  0.0020
 1876TFB     F423380   4.002   4.562   2.611 -0.2552  0.3058 -0.0501
 1877TFB      B23381   1.485   3.730   0.111 -0.0841 -0.4039  0.1468
 1877TFB     F123382   1.371   3.736   0.191 -0.1475 -0.3525 -0.2516
 1877TFB     F223383   1.528   3.596   0.092 -0.1493  0.5476  0.1405
 1877TFB     F323384   1.467   3.784  -0.013  0.0449 -0.5988 -0.5423
 1877TFB     F423385   1.579   3.802   0.177  0.8253  0.0631 -0.4129
 1878TFB      B23386   0.406   4.502   0.604 -0.6150 -0.5038  0.2021
 1878TFB     F123387   0.340   4.609   0.559 -0.3508 -0.3120 -0.3699
 1878TFB     F223388   0.510   4.550   0.693 -0.0341 -0.2892  0.4340
 1878TFB     F323389   0.300   4.445   0.662 -0.2035 -0.0556 -0.3003
 1878TFB     F423390   0.438   4.423   0.493 -0.4712 -0.4598 -0.3486
 1879TFB      B23391   1.195   5.173   5.470  0.2521  0.3654  0.9695
 1879TFB     F123392   1.072   5.132   5.403  0.0155  0.2145  0.1120
 1879TFB     F223393   1.275   5.263   5.399  0.2299  0.5191 -0.0105
 1879TFB     F323394   1.160   5.223   5.593  0.6283  0.2901  0.2355
 1879TFB     F423395   1.267   5.062   5.494  0.1276  0.2195 -0.3781
 1880TFB      B23396   3.359   3.803   4.857 -0.1732  0.2917 -0.6500
 1880TFB     F123397   3.344   3.711   4.965  0.9321 -0.4021 -0.1251
 1880TFB     F223398   3.412   3.925   4.888  0.7651  0.0330  0.0624
 1880TFB     F323399   3.430   3.748   4.751  0.4970 -0.0036  0.2517
 1880TFB     F423400   3.238   3.824   4.793  0.2197 -0.4157 -0.2434
 1881TFB      B23401   3.030   0.309   5.135  0.5698  0.0914  0.4185
 1881TFB     F123402   2.943   0.386   5.061  0.0494 -0.2805 -0.0621
 1881TFB     F223403   3.081   0.373   5.242 -0.5123 -0.0545 -0.0433
 1881TFB     F323404   2.979   0.191   5.170 -0.3382 -0.1441 -0.4122
 1881TFB     F423405   3.133   0.278   5.059  0.0011  0.0893 -0.2053
 1882TFB      B23406   0.093   1.063   0.077  0.8231  0.4828  0.2646
 1882TFB     F123407   0.121   1.200   0.076 -0.2984 -0.0973  0.2157
 1882TFB     F223408   0.196   0.992   0.024  0.2249  0.3183  0.3548
 1882TFB     F323409   0.065   1.039   0.205  0.1092  0.4534 -0.1061
 1882TFB     F423410  -0.023   1.036   0.004 -0.4081 -0.2577 -0.3723
 1883TFB      B23411   4.075   5.645   2.208  1.0493 -0.7637  0.0923
 1883TFB     F123412   3.973   5.561   2.169  0.5627  0.0133  0.7040
 1883TFB     F223413   4.103   5.632   2.341 -0.0651 -0.2448 -0.2286
 1883TFB     F323414   4.179   5.615   2.126  0.3640  0.7301  0.1392
 1883TFB     F423415   4.037   5.782   2.186  0.2634  0.7797  0.0341
 1884TFB      B23416   6.301   3.881   2.125  0.0325 -0.7320  0.3486
 1884TFB     F123417   6.254   3.879   2.257 -0.1629 -0.5198  0.2225
 1884TFB     F223418   6.212   3.801   2.055 -0.5843 -0.2750 -0.4592
 1884TFB     F323419   6.294   4.010   2.070 -0.0990 -0.0916  0.1531
 1884TFB     F423420   6.427   3.825   2.115 -0.2875  0.3228 -0.6151
 1885TFB      B23421   5.499   6.040   0.573 -0.2288  0.2193 -0.1346
 1885TFB     F123422   5.618   5.970   0.596  0.0681 -0.7121  0.2900
 1885TFB     F223423   5.505   6.087   0.445  0.7238  0.0702  0.5866
 1885TFB     F323424   5.393   5.953   0.605  0.3947  0.2529  0.1635
 1885TFB     F423425   5.495   6.157   0.649  0.4688 -0.4055 -0.1591
 1886TFB      B23426   2.951   4.214   4.562 -1.0494  0.1786  0.4010
 1886TFB     F123427   3.022   4.093   4.607 -0.0510  0.1328 -0.3623
 1886TFB     F223428   2.961   4.207   4.425 -0.2569  0.1091  0.1206
 1886TFB     F323429   2.826   4.214   4.619 -0.2069 -0.9402 -0.1627
 1886TFB     F423430   3.021   4.315   4.619 -0.0429  0.2989 -0.3981
 1887TFB      B23431   5.770   4.211   2.646 -0.1084 -0.9585  0.5448
 1887TFB     F123432   5.753   4.107   2.739 -0.4615  0.3727  0.5033
 1887TFB     F223433   5.689   4.197   2.532 -0.1625  0.2190  0.2961
 1887TFB     F323434   5.747   4.334   2.689 -0.0029  0.4361  0.0536
 1887TFB     F423435   5.901   4.210   2.598  0.4998 -0.3684  0.1405
 1888TFB      B23436   1.975   3.128   0.779 -0.4634 -0.2468  0.1654
 1888TFB     F123437   1.904   3.055   0.870 -0.1111  0.2233 -0.1369
 1888TFB     F223438   1.911   3.137   0.658 -0.4421  0.8347 -0.8332
 1888TFB     F323439   1.974   3.258   0.826 -1.0777 -0.1066  0.1183
 1888TFB     F423440   2.102   3.085   0.745 -0.6399  0.8044  0.2639
 1889TFB      B23441   3.155   0.822   2.378  0.3186  0.2054 -0.0087
 1889TFB     F123442   3.209   0.948   2.361  0.7098 -0.4019  0.4853
 1889TFB     F223443   3.031   0.835   2.429  0.0771  0.2763 -0.3199
 1889TFB     F323444   3.133   0.758   2.250 -0.1459 -0.1429  0.7187
 1889TFB     F423445   3.238   0.741   2.445 -0.2941  0.1673  0.4940
 1890TFB      B23446   4.844   0.764   0.541 -0.0596 -0.7413 -0.7245
 1890TFB     F123447   4.978   0.776   0.509 -0.0600  0.7142 -0.5216
 1890TFB     F223448   4.777   0.676   0.453 -0.8048 -0.1922 -0.5216
 1890TFB     F323449   4.807   0.708   0.660 -0.0234  0.0069 -0.8647
 1890TFB     F423450   4.781   0.888   0.539 -0.2483  0.0743  0.1868
 1891TFB      B23451   4.469   3.849   2.388 -0.5027  1.4052 -0.1946
 1891TFB     F123452   4.395   3.878   2.496  0.2187 -0.5380 -0.2953
 1891TFB     F223453   4.412   3.732   2.332  0.0418 -0.0986  0.4313
 1891TFB     F323454   4.469   3.963   2.306 -0.6914  0.4997 -0.3712
 1891TFB     F423455   4.597   3.823   2.431  0.6486 -0.1789  0.1640
 1892TFB      B23456   5.604   5.346   0.486 -0.1125  0.8763 -0.2139
 1892TFB     F123457   5.589   5.234   0.573  0.0065 -0.4209  0.0380
 1892TFB     F223458   5.501   5.439   0.498 -0.0247 -0.2691  0.5803
 1892TFB     F323459   5.723   5.415   0.509  0.2923  0.8462 -0.0155
 1892TFB     F423460   5.611   5.306   0.356 -0.4868 -0.2217  0.0739
 1893TFB      B23461   1.729   3.096   3.567 -0.0011 -0.0661  0.2466
 1893TFB     F123462   1.643   3.014   3.635 -0.1582  0.3064 -0.0055
 1893TFB     F223463   1.846   3.018   3.545  0.4367  0.3960 -0.3501
 1893TFB     F323464   1.675   3.125   3.439 -0.2327 -0.2305 -0.3524
 1893TFB     F423465   1.755   3.218   3.635 -0.5236 -0.0253  0.4016
 1894TFB      B23466   3.915   4.029   3.380 -1.0351  0.2487  0.2169
 1894TFB     F123467   3.962   3.967   3.258 -0.5353  0.0571 -0.2892
 1894TFB     F223468   3.781   4.072   3.355  0.0658 -0.2195  0.4481
 1894TFB     F323469   3.903   3.939   3.486 -0.7912  0.1598  0.6529
 1894TFB     F423470   4.000   4.130   3.427 -0.3476  0.2399 -0.0548
 1895TFB      B23471   2.986   6.102   5.496 -0.0057 -0.1720  0.4661
 1895TFB     F123472   3.049   6.139   5.616 -0.0773  0.5379 -0.3730
 1895TFB     F223473   3.069   6.005   5.451  0.2121 -0.4225  0.2053
 1895TFB     F323474   2.853   6.057   5.502 -0.1071  0.4778 -0.1628
 1895TFB     F423475   2.976   6.199   5.395 -0.8132 -0.1896 -0.4808
 1896TFB      B23476   0.289   4.823   2.314  0.7204 -0.2896 -0.8812
 1896TFB     F123477   0.236   4.848   2.195  0.2443 -0.0983 -0.1191
 1896TFB     F223478   0.199   4.856   2.422 -0.7112  0.0061  0.5365
 1896TFB     F323479   0.320   4.689   2.315  0.3710  0.0751 -0.0046
 1896TFB     F423480   0.401   4.889   2.350  0.1599  0.2396 -0.7669
 1897TFB      B23481   4.289   2.684   4.826 -0.2354 -0.0359 -0.2858
 1897TFB     F123482   4.182   2.675   4.734 -0.1184  0.1882 -0.5819
 1897TFB     F223483   4.316   2.810   4.868  1.0262  0.3309 -0.3054
 1897TFB     F323484   4.254   2.618   4.944  0.1382 -0.4382  0.2352
 1897TFB     F423485   4.403   2.647   4.765 -0.0092  0.0192  0.0207
 1898TFB      B23486   2.145   0.397   2.118  0.1886  0.9090 -0.5364
 1898TFB     F123487   2.155   0.261   2.130  0.2648  0.2589 -0.3334
 1898TFB     F223488   2.132   0.432   1.987  0.1024 -0.1341 -0.1502
 1898TFB     F323489   2.026   0.432   2.181 -0.4066  0.2699 -0.5393
 1898TFB     F423490   2.244   0.468   2.188 -0.4395  0.4431  0.0939
 1899TFB      B23491   4.975   2.473   4.767  0.4007  0.2392  1.4714
 1899TFB     F123492   4.997   2.610   4.791  0.1476 -0.2492  0.4313
 1899TFB     F223493   4.841   2.428   4.759 -0.6766  0.0111  0.1657
 1899TFB     F323494   5.050   2.451   4.652 -0.3053  0.2206 -0.3148
 1899TFB     F423495   5.033   2.400   4.870 -0.6863 -0.5797 -0.0475
 1900TFB      B23496   4.936   5.541   1.811  0.4262 -0.1084  0.3848
 1900TFB     F123497   4.904   5.414   1.858  0.2637 -0.3150  0.1439
 1900TFB     F223498   5.012   5.606   1.907 -0.3738  0.2753 -0.0024
 1900TFB     F323499   4.996   5.531   1.684  0.0539  0.2070  0.3004
 1900TFB     F423500   4.828   5.620   1.799 -0.1680 -0.2771  0.2567
 1901TFB      B23501   1.183   2.125   4.784  0.4764  0.1141  0.0945
 1901TFB     F123502   1.289   2.114   4.691  0.0197 -0.3021 -0.3365
 1901TFB     F223503   1.152   2.002   4.833 -0.5448  0.5430 -0.0878
 1901TFB     F323504   1.239   2.204   4.883 -0.6274  0.3966  0.2455
 1901TFB     F423505   1.062   2.183   4.730 -0.1466 -0.2827 -0.1102
 1902TFB      B23506   3.847   3.888   2.742  0.1077  0.1814  0.8914
 1902TFB     F123507   3.973   3.911   2.683 -0.2776  0.7323  0.2936
 1902TFB     F223508   3.769   3.990   2.705  0.0651  0.0721  0.3530
 1902TFB     F323509   3.778   3.771   2.699 -0.2826 -0.0474  0.5084
 1902TFB     F423510   3.861   3.888   2.878 -0.2725  0.4375 -0.3570
 1903TFB      B23511   5.834   2.040   1.980  0.4591 -0.4809  0.3424
 1903TFB     F123512   5.892   2.124   2.076  0.0863  0.0920 -0.9756
 1903TFB     F223513   5.924   2.002   1.877 -0.1975 -0.2938  0.1320
 1903TFB     F323514   5.765   1.925   2.035  0.3338  0.5419 -0.2617
 1903TFB     F423515   5.736   2.105   1.910  0.1317 -0.0196  0.0425
 1904TFB      B23516   1.203   2.032   4.014  0.0151 -0.9835 -0.5567
 1904TFB     F123517   1.230   2.075   4.141  0.5505  0.2482 -0.0167
 1904TFB     F223518   1.074   1.978   4.016 -0.0567  0.0637  0.0678
 1904TFB     F323519   1.225   2.139   3.923  0.0464 -0.1151  0.1088
 1904TFB     F423520   1.291   1.931   3.982  0.0407 -0.2453  0.2465
 1905TFB      B23521   1.748   0.280   0.433 -1.0098  0.6142  1.0487
 1905TFB     F123522   1.832   0.261   0.536  0.5548 -0.2956 -0.2433
 1905TFB     F223523   1.724   0.415   0.423  0.6897  0.2039 -0.3113
 1905TFB     F323524   1.796   0.228   0.319 -0.1615 -0.0943 -0.6965
 1905TFB     F423525   1.628   0.227   0.455 -0.4163 -0.4611 -0.9399
 1906TFB      B23526   3.295   2.535   3.060  0.2949 -0.2274  0.4088
 1906TFB     F123527   3.280   2.440   2.960  0.1187 -0.0098  0.4797
 1906TFB     F223528   3.227   2.644   3.018  0.4955  0.2211  0.1844
 1906TFB     F323529   3.228   2.489   3.176 -0.1577 -0.1839 -0.9594
 1906TFB     F423530   3.425   2.587   3.082  0.4205 -0.1256  0.3553
 1907TFB      B23531   1.320   2.583   2.458  0.1804 -0.4451  0.2617
 1907TFB     F123532   1.218   2.682   2.477 -0.1889  0.2088  0.1190
 1907TFB     F223533   1.369   2.581   2.330  0.2562 -0.2422  0.2590
 1907TFB     F323534   1.425   2.624   2.545  0.1161 -0.3878  0.7303
 1907TFB     F423535   1.272   2.457   2.487  0.6045 -0.0500 -0.1098
 1908TFB      B23536   3.705   1.468   4.069  0.1252 -0.0353  0.4509
 1908TFB     F123537   3.710   1.521   3.946 -0.0316 -0.0785  0.0464
 1908TFB     F223538   3.810   1.380   4.095 -0.0525 -0.5542 -0.1317
 1908TFB     F323539   3.691   1.567   4.164  0.0461  0.0909 -0.6560
 1908TFB     F423540   3.586   1.393   4.080  0.2021  0.4282 -0.2170
 1909TFB      B23541   0.343   6.341   5.430 -0.2808 -0.3560 -0.4613
 1909TFB     F123542   0.466   6.288   5.472  0.2552  0.0810  0.0350
 1909TFB     F223543   0.306   6.287   5.311 -0.1028  0.2430 -0.2231
 1909TFB     F323544   0.253   6.325   5.532  0.6255 -0.0188 -0.0055
 1909TFB     F423545   0.372   6.470   5.397 -0.5782 -0.5267 -0.3376
 1910TFB      B23546   4.887   3.105   0.724  0.9038  0.4176 -0.1515
 1910TFB     F123547   4.790   3.069   0.628 -0.4189 -0.4383  0.1433
 1910TFB     F223548   4.967   3.202   0.675 -0.4422 -0.2991  0.0963
 1910TFB     F323549   4.813   3.137   0.839 -0.4097 -0.5968  0.1405
 1910TFB     F423550   4.970   3.003   0.760  0.3335 -0.2669  0.4818
 1911TFB      B23551   1.315   1.987   6.312 -1.1004  0.1157 -0.4399
 1911TFB     F123552   1.287   1.956   6.181  0.3408 -0.0814  0.4172
 1911TFB     F223553   1.258   1.897   6.395 -0.6294 -0.1270  0.7082
 1911TFB     F323554   1.451   1.999   6.332 -0.3728 -0.2796 -0.4661
 1911TFB     F423555   1.257   2.107   6.336 -0.3164 -0.0441 -0.3167
 1912TFB      B23556   5.614   5.101   5.053 -0.1902  0.2240  0.3637
 1912TFB     F123557   5.732   5.024   5.029  0.5262  0.0272  0.6433
 1912TFB     F223558   5.521   5.103   4.951 -0.7190 -0.6279  0.5612
 1912TFB     F323559   5.564   5.052   5.173 -0.7140 -0.0912 -0.0770
 1912TFB     F423560   5.646   5.237   5.069 -0.2717  0.3865  0.1448
 1913TFB      B23561   3.794   3.193   1.425 -0.1147 -0.0532  0.9756
 1913TFB     F123562   3.835   3.322   1.398  0.2031  0.4692 -0.3438
 1913TFB     F223563   3.832   3.155   1.551  0.1569  0.2460 -0.1366
 1913TFB     F323564   3.653   3.190   1.431  0.7036  0.1486 -0.0208
 1913TFB     F423565   3.833   3.103   1.321 -0.1358  0.0562 -0.2005
 1914TFB      B23566   0.648   4.222   4.436  0.5240 -0.0965 -0.0857
 1914TFB     F123567   0.631   4.323   4.339  0.5126 -0.0007 -0.0639
 1914TFB     F223568   0.617   4.101   4.383 -0.4340  0.3147  0.1299
 1914TFB     F323569   0.790   4.228   4.465 -0.0391 -0.2272 -0.0105
 1914TFB     F423570   0.571   4.254   4.554 -0.3143 -0.0870  0.5045
 1915TFB      B23571   4.769   4.114   4.613  0.5619 -1.0318  0.2244
 1915TFB     F123572   4.660   4.182   4.681  0.2739 -0.1366 -0.4419
 1915TFB     F223573   4.802   4.180   4.494  0.0479  0.3205 -0.4844
 1915TFB     F323574   4.879   4.109   4.698  0.4590 -0.3644  0.1199
 1915TFB     F423575   4.737   3.987   4.593 -0.6440 -0.3835  0.1945
 1916TFB      B23576   4.513   5.340   1.040  0.0737  0.3297 -0.2935
 1916TFB     F123577   4.440   5.377   0.927 -0.1667  0.3246 -0.0569
 1916TFB     F223578   4.547   5.451   1.110 -0.0481 -0.0751 -0.5218
 1916TFB     F323579   4.442   5.260   1.123  0.0916 -0.3823 -0.1240
 1916TFB     F423580   4.631   5.286   0.996  0.0155 -0.2447  0.1681
 1917TFB      B23581   5.488   2.437   1.029  0.2427  0.2224 -0.2679
 1917TFB     F123582   5.424   2.551   1.008 -0.1889 -0.6070  0.5042
 1917TFB     F223583   5.585   2.460   1.124 -0.5789 -0.4429 -0.0585
 1917TFB     F323584   5.415   2.333   1.084  0.3890 -0.2849  0.2226
 1917TFB     F423585   5.554   2.398   0.916 -0.0165  0.1126 -0.5786
 1918TFB      B23586   4.742   4.192   1.670 -0.4209  0.1068  0.0696
 1918TFB     F123587   4.661   4.231   1.564  0.1477 -0.0106  0.0344
 1918TFB     F223588   4.728   4.055   1.680 -0.4767 -0.0196  0.1286
 1918TFB     F323589   4.871   4.221   1.633  0.1668 -0.2488 -0.1822
 1918TFB     F423590   4.695   4.250   1.786  0.2334  0.4070  0.7443
 1919TFB      B23591   2.325   6.128   1.886 -0.1319 -0.6892  0.2101
 1919TFB     F123592   2.284   6.240   1.948 -0.2731  0.4381 -0.0230
 1919TFB     F223593   2.385   6.038   1.976  0.6027  0.1339  0.1682
 1919TFB     F323594   2.218   6.064   1.818 -0.1824 -0.0991 -0.3103
 1919TFB     F423595   2.422   6.153   1.785  0.0537 -0.3671 -0.3156
 1920TFB      B23596   4.436   5.874   1.400  0.1827 -0.0919 -0.3405
 1920TFB     F123597   4.558   5.919   1.465 -0.1455 -0.2291  0.2946
 1920TFB     F223598   4.392   5.953   1.299 -0.1755 -0.3587  0.1184
 1920TFB     F323599   4.454   5.746   1.345  0.5294  0.2506 -0.0611
 1920TFB     F423600   4.328   5.874   1.489 -0.3825 -0.1123  0.2466
 1921TFB      B23601   1.985   3.585   0.285  0.9451  0.2374  0.3726
 1921TFB     F123602   2.026   3.505   0.184  0.2788  0.1339 -0.1616
 1921TFB     F223603   2.091   3.663   0.338  0.2543  0.4387 -0.3618
 1921TFB     F323604   1.880   3.663   0.240  0.0469 -0.0923 -0.2029
 1921TFB     F423605   1.938   3.496   0.378  0.3645  0.0667  0.0427
 1922TFB      B23606   1.415   2.921   4.225 -0.3847  0.3903  0.7532
 1922TFB     F123607   1.344   3.045   4.231  0.0394 -0.1092  0.1896
 1922TFB     F223608   1.385   2.857   4.103 -1.3449 -0.2611 -0.0138
 1922TFB     F323609   1.548   2.940   4.233 -0.1770  0.3377 -0.1381
 1922TFB     F423610   1.376   2.825   4.324 -0.1051  0.6072  0.2597
 1923TFB      B23611   5.961   0.498   5.965 -0.8799 -0.1552 -0.3272
 1923TFB     F123612   5.929   0.635   5.950  0.0945 -0.0999  0.2096
 1923TFB     F223613   5.924   0.432   5.843  0.2792 -0.6448 -0.6240
 1923TFB     F323614   6.092   0.485   6.010 -0.0028  0.1765  0.0910
 1923TFB     F423615   5.878   0.439   6.055 -0.5644  0.5132  0.2950
 1924TFB      B23616   6.128   5.517   6.238 -0.3489 -0.3345 -0.0810
 1924TFB     F123617   6.203   5.405   6.232 -0.1266 -0.3932  0.3275
 1924TFB     F223618   6.185   5.597   6.338 -0.5477 -0.0495  0.7588
 1924TFB     F323619   6.135   5.585   6.121  0.2381  0.7214  0.0371
 1924TFB     F423620   5.997   5.475   6.260  0.2875 -0.4507  0.1211
 1925TFB      B23621   4.143   0.684   2.501  0.2727 -0.2035 -0.1149
 1925TFB     F123622   4.071   0.589   2.427  0.4039  0.2869  0.1734
 1925TFB     F223623   4.120   0.658   2.637 -0.2760  0.2477  0.0937
 1925TFB     F323624   4.274   0.670   2.480 -0.2905  0.6588 -0.3813
 1925TFB     F423625   4.116   0.816   2.459 -0.2736  0.1450 -0.3124
 1926TFB      B23626   5.167   3.899   5.084  0.2583  0.1978 -0.6667
 1926TFB     F123627   5.139   4.028   5.058 -0.2361 -0.4600  0.0130
 1926TFB     F223628   5.048   3.842   5.124 -0.0117 -0.0749 -0.3748
 1926TFB     F323629   5.198   3.843   4.963 -0.6858  0.0844  0.1103
 1926TFB     F423630   5.260   3.885   5.176 -0.2097 -0.0273  0.1441
 1927TFB      B23631   4.359   4.986   1.904  0.1046 -0.3983 -0.4598
 1927TFB     F123632   4.262   5.028   1.813 -0.0336  0.4883 -0.5085
 1927TFB     F223633   4.317   4.861   1.946 -0.2111  0.1309 -0.6136
 1927TFB     F323634   4.486   4.985   1.847  0.3406 -0.6143 -0.2221
 1927TFB     F423635   4.354   5.072   2.010  0.1715  0.3686  0.0467
 1928TFB      B23636   3.496   1.570   5.678  0.3478  0.2751  0.4395
 1928TFB     F123637   3.589   1.670   5.666  0.2415  0.0243 -0.3318
 1928TFB     F223638   3.543   1.491   5.788 -0.2657 -0.1892  0.3561
 1928TFB     F323639   3.364   1.618   5.710  0.1390 -0.2861  0.6035
 1928TFB     F423640   3.489   1.516   5.552 -0.1568 -0.0859 -0.0727
 1929TFB      B23641   5.788   0.303   1.668  0.4645 -0.3099 -0.1315
 1929TFB     F123642   5.845   0.426   1.640 -0.4843  0.5624  0.1059
 1929TFB     F223643   5.696   0.275   1.568 -0.5263 -0.2085  0.0761
 1929TFB     F323644   5.889   0.204   1.664  0.4690  0.4678 -0.0976
 1929TFB     F423645   5.726   0.294   1.794 -0.6449 -0.2332  0.5999
 1930TFB      B23646   2.276   5.268   0.685  0.0607  0.1909 -0.4013
 1930TFB     F123647   2.175   5.367   0.674 -0.2638 -0.0108 -0.1473
 1930TFB     F223648   2.248   5.212   0.811  0.3586 -0.0414  0.1145
 1930TFB     F323649   2.259   5.164   0.586 -0.4053  0.5255 -0.7205
 1930TFB     F423650   2.403   5.307   0.686  0.5579  0.4875  0.4123
 1931TFB      B23651   3.648   0.127   4.913 -0.3130  0.1105 -0.1321
 1931TFB     F123652   3.647   0.127   5.054 -0.4050  0.0546 -0.6388
 1931TFB     F223653   3.526   0.107   4.853 -0.1580  0.0752  0.1199
 1931TFB     F323654   3.686   0.252   4.872 -0.2434 -0.1621  0.1566
 1931TFB     F423655   3.751   0.036   4.878  0.0972  0.2807  0.1343
 1932TFB      B23656   4.188   1.278   3.509 -0.1066 -0.1803  0.7913
 1932TFB     F123657   4.297   1.350   3.560 -0.0807  0.0753  0.4919
 1932TFB     F223658   4.228   1.173   3.427  0.1161 -0.4911  0.3987
 1932TFB     F323659   4.102   1.227   3.606 -0.7037 -0.4329 -0.0481
 1932TFB     F423660   4.117   1.375   3.427 -0.2790  0.2272  0.1753
 1933TFB      B23661   2.919   6.133   1.951 -0.4176  0.2581 -0.3894
 1933TFB     F123662   2.840   6.022   1.912 -0.4298  0.3505  0.0200
 1933TFB     F223663   2.911   6.246   1.867 -0.1114 -0.8089  0.1837
 1933TFB     F323664   2.884   6.168   2.073  0.1733 -0.2093 -0.3296
 1933TFB     F423665   3.052   6.084   1.938  0.5829  0.4176 -0.6423
 1934TFB      B23666   5.013   1.334   0.153 -0.5012 -0.0110 -0.0437
 1934TFB     F123667   4.943   1.296   0.035 -0.8063  0.9560 -0.1493
 1934TFB     F223668   5.153   1.305   0.133 -0.1211  0.7113  0.8641
 1934TFB     F323669   4.994   1.469   0.146 -0.4909  0.8003  0.1057
 1934TFB     F423670   4.972   1.283   0.267 -0.0193  0.8129 -0.0199
 1935TFB      B23671   5.574   0.642   4.913 -0.5182  0.5527 -0.6298
 1935TFB     F123672   5.556   0.691   5.042 -0.1599 -0.1962  0.5613
 1935TFB     F223673   5.536   0.752   4.836  0.0266  0.2703  0.0237
 1935TFB     F323674   5.705   0.602   4.895 -0.1514  0.1850 -0.5659
 1935TFB     F423675   5.494   0.532   4.879 -0.3839 -0.1349 -0.0114
 1936TFB      B23676   2.782   2.971   3.122  0.5876 -0.1190 -0.3582
 1936TFB     F123677   2.745   3.104   3.103  0.2621  0.0419  0.0243
 1936TFB     F223678   2.676   2.887   3.141 -0.2812 -0.7104 -0.4155
 1936TFB     F323679   2.848   2.955   2.994 -0.0122  0.1622 -0.1313
 1936TFB     F423680   2.875   2.948   3.223  0.0995 -0.3286 -0.1888
 1937TFB      B23681   2.783   4.602   2.399 -0.3508  0.3519  0.3619
 1937TFB     F123682   2.816   4.623   2.266 -0.5583 -0.0292 -0.2885
 1937TFB     F223683   2.899   4.556   2.463 -0.4937  0.2357 -0.1063
 1937TFB     F323684   2.745   4.722   2.459  0.0771  0.5258  0.0217
 1937TFB     F423685   2.689   4.499   2.398  0.3684  0.8341 -0.3411
 1938TFB      B23686   4.367   4.418   0.245 -0.3081 -0.0755 -0.8807
 1938TFB     F123687   4.458   4.404   0.354  0.1135  0.6278 -0.6843
 1938TFB     F223688   4.261   4.494   0.283  0.2506  0.1672  0.4216
 1938TFB     F323689   4.420   4.461   0.124 -0.3012  0.2109  0.0948
 1938TFB     F423690   4.311   4.296   0.209 -0.2931 -0.1566 -0.2739
 1939TFB      B23691   3.278   5.497   5.482  1.1518 -0.7995 -1.1137
 1939TFB     F123692   3.354   5.401   5.420  0.0947  0.1674 -0.1116
 1939TFB     F223693   3.150   5.454   5.441  0.0429 -0.0776  0.4776
 1939TFB     F323694   3.288   5.490   5.625 -0.4327  0.6845  0.4686
 1939TFB     F423695   3.291   5.630   5.444 -0.0299  0.1684 -0.1260
 1940TFB      B23696   0.310   5.521   4.030  0.0558 -0.4497 -0.4286
 1940TFB     F123697   0.346   5.443   4.139 -0.0522  0.3562  0.1829
 1940TFB     F223698   0.315   5.452   3.918  0.2512 -0.0009 -0.3206
 1940TFB     F323699   0.203   5.600   4.055 -0.3932 -0.7314 -0.0100
 1940TFB     F423700   0.423   5.604   4.014  0.5089  0.6955  0.4592
 1941TFB      B23701   3.282   4.343   2.706 -0.8474  0.4553 -0.3928
 1941TFB     F123702   3.401   4.281   2.738 -0.1961 -0.3379 -0.1393
 1941TFB     F223703   3.288   4.476   2.745  0.1974  0.0525 -0.3369
 1941TFB     F323704   3.268   4.338   2.572  0.1658  0.7051 -0.0161
 1941TFB     F423705   3.177   4.281   2.770 -0.0509 -0.0910  0.2618
 1942TFB      B23706   3.136   1.820   1.448 -0.3512 -0.5131  0.1241
 1942TFB     F123707   3.170   1.716   1.528  0.2361  0.3270 -0.6719
 1942TFB     F223708   3.016   1.867   1.486 -0.1654 -0.1646 -0.4357
 1942TFB     F323709   3.229   1.925   1.449  0.2478 -0.1606 -0.5781
 1942TFB     F423710   3.129   1.776   1.315  0.0770  0.1529  0.5102
 1943TFB      B23711   4.497   2.837   0.648  0.5213  0.0581  0.0417
 1943TFB     F123712   4.592   2.738   0.660  0.1967  0.0188  0.5962
 1943TFB     F223713   4.495   2.904   0.771 -0.3515  0.3810 -0.5270
 1943TFB     F323714   4.520   2.909   0.538 -0.6690 -0.3905 -0.1454
 1943TFB     F423715   4.373   2.769   0.634 -0.0471  0.0368 -0.4111
 1944TFB      B23716   0.105   5.291   2.871  0.4102 -0.4769  0.8954
 1944TFB     F123717   0.130   5.421   2.840 -0.0815 -0.4885  0.4041
 1944TFB     F223718  -0.018   5.291   2.938 -0.1872  0.0262  0.2780
 1944TFB     F323719   0.101   5.216   2.750 -0.7101  0.4725 -0.1110
 1944TFB     F423720   0.198   5.224   2.948  0.0475  0.2144  0.4387
 1945TFB      B23721   4.794   4.559   4.228  0.3748  0.0150  0.4757
 1945TFB     F123722   4.793   4.454   4.320 -0.2306 -0.2434  0.2265
 1945TFB     F223723   4.747   4.517   4.102 -0.0046 -0.4116 -0.4273
 1945TFB     F323724   4.709   4.669   4.263 -0.0786  0.0851  0.3444
 1945TFB     F423725   4.921   4.610   4.206 -0.2031  0.0702 -0.3739
 1946TFB      B23726   3.473   1.412   1.727  0.8631 -0.1898  0.3643
 1946TFB     F123727   3.435   1.527   1.653  0.1315  0.0910  0.0059
 1946TFB     F223728   3.466   1.297   1.653 -0.1118 -0.2875  0.2377
 1946TFB     F323729   3.611   1.419   1.758 -0.0771  0.0031 -0.5798
 1946TFB     F423730   3.414   1.402   1.854 -0.3325 -0.6137  0.4512
 1947TFB      B23731   3.123   2.500   5.080  0.2095 -0.1424 -0.3431
 1947TFB     F123732   2.994   2.515   5.027  0.0340 -0.0777 -0.2912
 1947TFB     F223733   3.147   2.368   5.111  0.2035  0.2896  0.4958
 1947TFB     F323734   3.213   2.536   4.978  0.0306 -0.0786 -0.3730
 1947TFB     F423735   3.158   2.569   5.194 -0.4092  0.0912  0.4846
 1948TFB      B23736   2.728   4.012   2.396 -0.2831  0.4868  0.4139
 1948TFB     F123737   2.802   4.056   2.284 -0.1103 -0.8400 -0.3558
 1948TFB     F223738   2.787   4.035   2.517 -0.1807  0.1393  0.3394
 1948TFB     F323739   2.596   4.058   2.382  0.1878 -0.2498 -0.4492
 1948TFB     F423740   2.735   3.874   2.371 -0.3733 -0.1609  0.0551
 1949TFB      B23741   4.293   2.438   2.614  0.5844 -0.5884 -0.6216
 1949TFB     F123742   4.294   2.482   2.744 -0.5835 -0.4570  0.0886
 1949TFB     F223743   4.163   2.441   2.572  0.1430  0.1631  0.7911
 1949TFB     F323744   4.369   2.506   2.519 -0.7352 -0.2378 -0.1684
 1949TFB     F423745   4.329   2.307   2.615  0.1406 -0.5543  0.0112
 1950TFB      B23746   0.494   1.667   4.704  0.0217  0.4434 -0.4367
 1950TFB     F123747   0.632   1.674   4.685  0.2265 -0.2916  0.6766
 1950TFB     F223748   0.464   1.712   4.834  0.4424  0.1864 -0.1910
 1950TFB     F323749   0.422   1.749   4.618 -0.0474  0.0896 -0.0926
 1950TFB     F423750   0.458   1.534   4.696 -0.0356 -0.1727  0.1449
 1951TFB      B23751   5.702   1.546   3.651 -0.4314  0.5110 -0.0758
 1951TFB     F123752   5.734   1.522   3.520 -0.2908 -0.1430  0.4939
 1951TFB     F223753   5.588   1.485   3.692  0.1801  0.4468 -0.0914
 1951TFB     F323754   5.797   1.495   3.738 -0.0676  0.4518  0.1489
 1951TFB     F423755   5.689   1.678   3.680  0.3206 -0.0708  0.0975
 1952TFB      B23756   2.493   1.372   6.221 -1.2354 -0.4793 -0.0674
 1952TFB     F123757   2.484   1.242   6.285 -0.1710 -0.8545 -0.3473
 1952TFB     F223758   2.403   1.380   6.112 -0.1071 -0.4041 -0.2281
 1952TFB     F323759   2.436   1.453   6.314  0.3942 -0.2251 -0.1383
 1952TFB     F423760   2.625   1.405   6.206 -0.7858  0.0420 -0.5499
 1953TFB      B23761   6.150   0.942   2.951  0.4081 -0.3747 -0.6988
 1953TFB     F123762   6.053   0.835   2.928 -0.8839 -0.8080  0.0538
 1953TFB     F223763   6.262   0.935   2.868  0.1107  0.2723  0.3642
 1953TFB     F323764   6.088   1.069   2.941 -0.5813 -0.8936 -0.3399
 1953TFB     F423765   6.198   0.930   3.079  0.1111 -0.2952  0.1800
 1954TFB      B23766   5.403   3.992   2.217  0.3624 -0.2685  0.5355
 1954TFB     F123767   5.401   4.086   2.117 -0.0445  0.2727 -0.3542
 1954TFB     F223768   5.279   3.953   2.235  0.2510 -0.1916  0.0542
 1954TFB     F323769   5.496   3.889   2.207  0.4814 -0.1890  0.6652
 1954TFB     F423770   5.438   4.048   2.342 -0.3043 -0.0156  1.0283
 1955TFB      B23771   5.329   2.034   2.144 -0.3760  0.1813  0.0118
 1955TFB     F123772   5.208   1.971   2.114 -0.4719 -0.0917 -0.3646
 1955TFB     F223773   5.429   2.035   2.041  0.6181  0.8120 -0.4079
 1955TFB     F323774   5.302   2.160   2.177  0.1125 -0.3225  0.1402
 1955TFB     F423775   5.370   1.979   2.260  0.0271  0.3127 -0.2687
 1956TFB      B23776   3.837   0.058   1.104  0.5688  0.1156  0.5076
 1956TFB     F123777   3.699   0.056   1.094  0.2938  0.2076  0.5539
 1956TFB     F223778   3.869   0.044   1.238  0.2450  0.0905  0.4317
 1956TFB     F323779   3.890  -0.061   1.055 -0.2508  0.6614 -0.3969
 1956TFB     F423780   3.901   0.173   1.061 -0.6346  0.0005 -0.5580
 1957TFB      B23781   0.497   3.831   5.205  0.1595  0.8787 -0.5965
 1957TFB     F123782   0.624   3.883   5.174  0.2152  0.6067 -0.4350
 1957TFB     F223783   0.413   3.824   5.098  0.4819  0.7911  0.4740
 1957TFB     F323784   0.513   3.694   5.244 -0.1702  0.0805  0.4305
 1957TFB     F423785   0.451   3.913   5.302  0.4832 -0.3026  0.1168
 1958TFB      B23786   0.581   3.393   3.337  0.3916  0.5767 -0.5672
 1958TFB     F123787   0.598   3.394   3.475  0.0646  0.0798 -0.1086
 1958TFB     F223788   0.456   3.338   3.321 -0.0304 -0.4523 -0.5306
 1958TFB     F323789   0.565   3.528   3.294 -0.1425  0.1695 -0.3100
 1958TFB     F423790   0.685   3.328   3.273  0.0316  0.9736  0.3322
 1959TFB      B23791   1.122   4.270   4.678  0.3254 -0.4287  0.1069
 1959TFB     F123792   0.994   4.252   4.734 -0.1681  0.1752  0.1921
 1959TFB     F223793   1.144   4.403   4.634 -0.0383 -0.4372 -0.7579
 1959TFB     F323794   1.210   4.250   4.787  0.4236 -0.9304  0.4444
 1959TFB     F423795   1.138   4.160   4.581 -0.1694  0.0395  0.0004
 1960TFB      B23796   2.139   5.337   5.784  0.0061  0.5335 -1.5158
 1960TFB     F123797   2.177   5.432   5.878 -0.2560  0.5984 -0.0018
 1960TFB     F223798   2.239   5.306   5.693 -0.4729 -0.2204 -0.5710
 1960TFB     F323799   2.097   5.224   5.842 -0.2888 -0.8767 -0.2108
 1960TFB     F423800   2.042   5.385   5.702 -0.3112 -0.9705 -0.2546
 1961TFB      B23801   0.931   5.889   5.769 -0.0018 -0.7675 -0.4264
 1961TFB     F123802   1.052   5.885   5.697 -0.1701 -0.0111  0.0622
 1961TFB     F223803   0.956   5.840   5.898  0.1374  0.4264  0.3639
 1961TFB     F323804   0.887   6.013   5.790  0.3963  0.1025  0.0934
 1961TFB     F423805   0.834   5.799   5.715  0.1391 -0.0972  0.4384
 1962TFB      B23806   3.958   5.789   4.411 -0.2178  0.2272  0.1936
 1962TFB     F123807   3.885   5.782   4.533  0.0446 -0.0273  0.1551
 1962TFB     F223808   3.896   5.865   4.318 -0.0447  0.1494  1.0537
 1962TFB     F323809   4.083   5.833   4.453 -0.0482  0.3924  0.1092
 1962TFB     F423810   3.962   5.665   4.363 -0.2375 -0.2805  0.1851
 1963TFB      B23811   5.436   0.215   4.500 -1.1646 -0.5608 -0.2314
 1963TFB     F123812   5.318   0.155   4.481  0.0945  0.8008  0.3934
 1963TFB     F223813   5.409   0.342   4.465  0.0973  0.2299  0.0628
 1963TFB     F323814   5.475   0.194   4.634  0.0969 -0.8248 -0.3483
 1963TFB     F423815   5.520   0.152   4.414  0.0389 -0.3226  0.0830
 1964TFB      B23816   3.478   5.476   4.072 -0.7704 -0.3704 -0.5573
 1964TFB     F123817   3.517   5.602   4.121  0.4513  0.1101 -0.5116
 1964TFB     F223818   3.359   5.450   4.134 -0.0773  0.4447 -0.1906
 1964TFB     F323819   3.460   5.480   3.935 -0.5289  0.1871  0.0451
 1964TFB     F423820   3.566   5.370   4.097  0.5002 -0.1258  0.3310
 1965TFB      B23821   2.747   5.593   4.181 -0.1268 -0.1676  0.2065
 1965TFB     F123822   2.653   5.523   4.258 -0.8685  0.1626 -0.5469
 1965TFB     F223823   2.738   5.569   4.042 -0.3030  0.0923 -0.0826
 1965TFB     F323824   2.726   5.729   4.204 -0.0557  0.5487 -0.0209
 1965TFB     F423825   2.874   5.569   4.233 -0.2037  0.0996 -0.0052
 1966TFB      B23826   0.332   1.607   3.916  0.8961  0.6981  0.3573
 1966TFB     F123827   0.417   1.683   3.835 -0.0976 -0.2176  0.4127
 1966TFB     F223828   0.403   1.566   4.031 -0.3275 -0.0598  0.7205
 1966TFB     F323829   0.211   1.683   3.928  0.3656 -0.1596  0.2525
 1966TFB     F423830   0.285   1.494   3.854  0.3591 -0.0956 -0.0102
 1967TFB      B23831   2.636   5.912   0.564  0.8099  0.2066  0.8220
 1967TFB     F123832   2.690   5.894   0.437 -0.0686  0.4753 -0.0369
 1967TFB     F223833   2.558   5.809   0.584  0.6030  0.4099 -0.0969
 1967TFB     F323834   2.738   5.928   0.655  0.3746  0.4541  0.0842
 1967TFB     F423835   2.552   6.021   0.572 -0.0451 -0.0793 -0.0399
 1968TFB      B23836   3.426   5.951   6.180  0.3862  0.3231 -0.0139
 1968TFB     F123837   3.497   5.988   6.065  0.5061  0.4086 -0.1909
 1968TFB     F223838   3.417   5.817   6.169 -0.4016 -0.7537  0.1425
 1968TFB     F323839   3.498   5.989   6.286  0.2323 -0.0699  0.1184
 1968TFB     F423840   3.304   6.005   6.185  0.3167 -0.3728 -0.5669
 1969TFB      B23841   0.753   0.615   3.846  0.7064 -0.0983 -0.0221
 1969TFB     F123842   0.690   0.703   3.758  0.1371  0.2268 -0.2461
 1969TFB     F223843   0.678   0.491   3.839 -0.0896  0.7329  0.1878
 1969TFB     F323844   0.882   0.585   3.815 -0.3801 -0.5377 -0.6865
 1969TFB     F423845   0.729   0.661   3.973  0.1230 -0.5267 -0.3044
 1970TFB      B23846   2.187   2.090   4.093  0.7074 -0.4355  0.2260
 1970TFB     F123847   2.133   2.184   4.181  0.1591 -0.0501 -0.3712
 1970TFB     F223848   2.085   2.022   4.029  0.4872  0.1059  0.3588
 1970TFB     F323849   2.267   2.150   3.989 -0.0150  0.0317  0.2409
 1970TFB     F423850   2.247   1.989   4.165  0.2557  0.8276  0.4622
 1971TFB      B23851   2.403   5.784   3.453  0.2988 -0.4072 -0.1528
 1971TFB     F123852   2.386   5.902   3.377 -0.0902  0.0458  0.3493
 1971TFB     F223853   2.437   5.817   3.581  0.4681  0.1097  0.1446
 1971TFB     F323854   2.310   5.686   3.440  0.3754 -0.1295  0.3422
 1971TFB     F423855   2.518   5.719   3.389  0.0270 -0.5550  0.2669
 1972TFB      B23856   0.557   5.382   3.092 -0.1147 -1.4111  0.5941
 1972TFB     F123857   0.657   5.480   3.062  0.5136  0.1529  0.5727
 1972TFB     F223858   0.619   5.263   3.094 -0.2598 -0.3743  0.2218
 1972TFB     F323859   0.503   5.408   3.218 -0.0314 -0.0209  0.3308
 1972TFB     F423860   0.461   5.388   2.993 -0.1393 -0.2487  0.1608
 1973TFB      B23861   3.024   3.463   2.621  0.2772  1.0523  0.5658
 1973TFB     F123862   2.935   3.378   2.691 -0.2957  0.0422 -0.5890
 1973TFB     F223863   3.058   3.406   2.495  0.7634 -0.1007  0.3981
 1973TFB     F323864   2.948   3.581   2.586 -0.4842 -0.0785 -0.1304
 1973TFB     F423865   3.128   3.498   2.702  0.8517 -0.7919 -0.7306
 1974TFB      B23866   3.157   2.920   2.182  0.2549 -0.6719  0.0491
 1974TFB     F123867   3.071   2.811   2.178  0.6029  0.4510  0.2981
 1974TFB     F223868   3.194   2.966   2.305 -0.4945 -0.4871  0.6693
 1974TFB     F323869   3.270   2.911   2.105 -0.1622  0.2020 -0.1698
 1974TFB     F423870   3.093   3.025   2.114 -0.0995 -0.0286 -0.5813
 1975TFB      B23871   3.968   5.813   3.632 -0.2695  0.1098  0.0270
 1975TFB     F123872   3.948   5.896   3.527 -0.3342  0.1600 -0.0367
 1975TFB     F223873   3.839   5.786   3.682 -0.2263  0.4402 -0.0883
 1975TFB     F323874   4.014   5.695   3.584  0.4017  0.1441 -0.2748
 1975TFB     F423875   4.050   5.881   3.722  0.0720 -0.1023 -0.0704
 1976TFB      B23876   2.684   0.549   2.187  0.0404 -0.6306  0.7751
 1976TFB     F123877   2.789   0.617   2.249 -0.0865  0.0104 -0.1054
 1976TFB     F223878   2.632   0.453   2.271 -0.4275  0.1235  0.1067
 1976TFB     F323879   2.594   0.639   2.130 -0.4756 -0.4397  0.2516
 1976TFB     F423880   2.734   0.482   2.082  0.4158 -0.2691  0.1213
 1977TFB      B23881   3.293   3.363   6.035  0.2732 -0.1770  0.1309
 1977TFB     F123882   3.212   3.389   5.924  0.2759 -0.0222  0.1206
 1977TFB     F223883   3.379   3.469   6.070  0.2805 -0.3396 -0.0449
 1977TFB     F323884   3.226   3.319   6.148 -0.0161  0.2998 -0.3405
 1977TFB     F423885   3.371   3.247   6.011  0.1127  0.6673  0.0000
 1978TFB      B23886   3.793   4.070   5.787  0.2889 -1.0219  0.1165
 1978TFB     F123887   3.828   4.123   5.908 -0.1612 -0.1605 -0.0202
 1978TFB     F223888   3.661   4.019   5.796 -0.2174  0.0393  0.1794
 1978TFB     F323889   3.807   4.169   5.690 -0.1584 -0.4745 -0.2744
 1978TFB     F423890   3.860   3.961   5.748  0.3139 -0.3469 -0.1600
 1979TFB      B23891   3.388   5.199   2.295 -0.5712  0.7597 -0.0468
 1979TFB     F123892   3.459   5.278   2.202 -0.5212 -0.2992 -0.3829
 1979TFB     F223893   3.425   5.063   2.285 -0.0910 -0.1130  0.0905
 1979TFB     F323894   3.412   5.248   2.424 -0.5622 -0.4424  0.0915
 1979TFB     F423895   3.256   5.217   2.264  0.5108  0.1219 -0.2889
 1980TFB      B23896   4.569   0.918   1.984 -0.1004 -0.8714 -1.0475
 1980TFB     F123897   4.650   0.995   1.904 -0.3150  0.0115 -0.0276
 1980TFB     F223898   4.616   0.787   1.974  0.0115  0.6465 -0.0875
 1980TFB     F323899   4.557   0.965   2.117 -0.3729 -0.3020  0.2258
 1980TFB     F423900   4.442   0.916   1.927  0.1413 -0.0870 -0.4420
 1981TFB      B23901   3.657   1.310   1.284  0.0370 -0.0043  0.3922
 1981TFB     F123902   3.619   1.178   1.261 -0.2547  0.1612  0.3006
 1981TFB     F223903   3.572   1.392   1.208  0.5655  0.3010 -0.0833
 1981TFB     F323904   3.644   1.342   1.412  0.4491 -0.0311  0.2593
 1981TFB     F423905   3.790   1.332   1.262  0.5048 -0.0979 -0.3886
 1982TFB      B23906   5.552   2.885   5.832  0.0235 -0.3643  0.8896
 1982TFB     F123907   5.641   2.973   5.886 -0.4009 -0.3006  0.1681
 1982TFB     F223908   5.439   2.958   5.795 -0.2500 -0.0181 -0.6104
 1982TFB     F323909   5.608   2.823   5.717 -0.5094  0.1600  0.4003
 1982TFB     F423910   5.506   2.780   5.922  0.0984  0.4287 -0.8401
 1983TFB      B23911   4.751   1.066   4.751 -0.2321 -0.1233  0.0179
 1983TFB     F123912   4.847   1.144   4.809 -0.1248 -0.8272  0.1638
 1983TFB     F223913   4.656   1.159   4.712  0.2250 -0.0141  0.7818
 1983TFB     F323914   4.818   1.000   4.650 -0.0843 -0.5112 -0.2039
 1983TFB     F423915   4.690   0.980   4.844 -0.3401  0.7270 -0.2544
 1984TFB      B23916   5.150   6.316   0.574 -0.0444  0.1031  0.0426
 1984TFB     F123917   5.212   6.297   0.697  0.0893  0.1330 -0.4667
 1984TFB     F223918   5.209   6.251   0.470 -0.5751 -0.2116  0.6651
 1984TFB     F323919   5.027   6.263   0.588  0.1419  0.1891  0.4162
 1984TFB     F423920   5.126   6.448   0.547  0.5669  0.8023  0.3304
 1985TFB      B23921   3.599   5.659   2.815 -0.7944  0.1375 -0.0034
 1985TFB     F123922   3.603   5.720   2.936  0.1841 -0.8220 -0.1690
 1985TFB     F223923   3.597   5.754   2.713 -0.2516 -0.0083 -0.1876
 1985TFB     F323924   3.713   5.578   2.807  0.4465  0.2036 -0.3966
 1985TFB     F423925   3.488   5.579   2.792  0.2738  0.2470 -0.1487
 1986TFB      B23926   2.650   1.966   3.850 -0.0363 -0.1938 -0.3594
 1986TFB     F123927   2.774   1.930   3.799  0.1992  0.0525  0.1517
 1986TFB     F223928   2.654   2.078   3.932  0.1863  0.0433 -0.6665
 1986TFB     F323929   2.567   1.977   3.733 -0.2349 -0.6912  0.3990
 1986TFB     F423930   2.596   1.866   3.932 -0.3586  0.2029 -0.0706
 1987TFB      B23931   5.775   2.808   0.212 -0.6239  0.2480  0.4542
 1987TFB     F123932   5.873   2.910   0.202 -0.3354 -0.3153  0.2245
 1987TFB     F223933   5.728   2.790   0.335  0.4662  0.1266 -0.0221
 1987TFB     F323934   5.661   2.843   0.137  0.4097 -0.4983 -0.4772
 1987TFB     F423935   5.828   2.686   0.179  0.1024 -0.3274 -0.5035
 1988TFB      B23936   6.041   3.003   2.048 -0.1715  1.0040 -0.4341
 1988TFB     F123937   5.963   3.082   2.123  0.9018 -0.2837  0.2466
 1988TFB     F223938   6.122   2.940   2.143 -0.6964  0.3864  0.8486
 1988TFB     F323939   5.970   2.900   1.983 -0.1378 -0.4303  0.1498
 1988TFB     F423940   6.114   3.077   1.959  0.2384  0.5287  0.2632
 1989TFB      B23941   1.679   1.960   5.181  0.2210  0.4225  0.0307
 1989TFB     F123942   1.722   2.069   5.255 -0.0509  0.0902 -0.3619
 1989TFB     F223943   1.555   2.012   5.130  0.2204  0.1670  0.1988
 1989TFB     F323944   1.756   1.919   5.074  0.0582  0.4799  0.3149
 1989TFB     F423945   1.648   1.852   5.269 -0.1586 -0.4425 -0.1226
 1990TFB      B23946   1.060   5.364   4.422  0.1793  0.1020 -0.5435
 1990TFB     F123947   1.110   5.352   4.553 -0.2715  0.0541 -0.4579
 1990TFB     F223948   1.022   5.242   4.358  0.1577 -0.0345 -0.1418
 1990TFB     F323949   0.947   5.447   4.429 -0.2715 -0.0705 -0.0428
 1990TFB     F423950   1.166   5.421   4.350 -0.0759 -0.0295  0.4292
 1991TFB      B23951   4.044   1.132   4.716 -0.1706 -0.3174 -0.0757
 1991TFB     F123952   3.931   1.113   4.650 -0.1166  0.5054 -0.0875
 1991TFB     F223953   4.058   1.261   4.755  0.5754  0.2248  0.6386
 1991TFB     F323954   4.052   1.040   4.820  0.5898  0.0018  0.0436
 1991TFB     F423955   4.158   1.108   4.636  0.1257 -0.0862  0.0929
 1992TFB      B23956   5.728   4.951   1.504 -0.7097  0.0024  0.5266
 1992TFB     F123957   5.603   4.891   1.534 -0.0163  0.0837  1.0941
 1992TFB     F223958   5.723   5.073   1.562 -0.0165  0.0534  0.1089
 1992TFB     F323959   5.813   4.852   1.571  0.2004  0.6745  0.6827
 1992TFB     F423960   5.747   4.956   1.367  0.2798  0.0978 -0.0632
 1993TFB      B23961   1.713   5.064   3.963 -0.2566 -0.1548  0.0058
 1993TFB     F123962   1.750   4.957   3.888  0.0782 -0.2184  0.1200
 1993TFB     F223963   1.631   5.021   4.060 -0.8212  0.4213 -0.2369
 1993TFB     F323964   1.829   5.118   4.016  0.5019  0.1103  0.6477
 1993TFB     F423965   1.638   5.164   3.898  0.4098  0.4306  0.5870
 1994TFB      B23966   2.080   2.541   0.041  1.0410 -0.5499  0.3363
 1994TFB     F123967   1.975   2.588   0.125  0.4131  0.0084  0.1890
 1994TFB     F223968   2.130   2.422   0.095 -0.2233 -0.7092  0.0159
 1994TFB     F323969   2.026   2.504  -0.082 -0.4820 -0.3435  0.5831
 1994TFB     F423970   2.183   2.634   0.006 -0.4207 -0.1306  0.2547
 1995TFB      B23971   3.163   2.963   4.307 -0.2764 -0.1644 -0.4574
 1995TFB     F123972   3.102   2.950   4.188  0.5934  0.4445  0.3476
 1995TFB     F223973   3.289   2.899   4.295 -0.4509 -0.4648  0.2581
 1995TFB     F323974   3.174   3.094   4.330 -0.6415 -0.0423 -0.4831
 1995TFB     F423975   3.099   2.897   4.409 -0.4828 -0.3522  0.5684
 1996TFB      B23976   6.056   1.459   0.746  0.3345  0.0254  0.4098
 1996TFB     F123977   6.110   1.502   0.624  0.0777  0.4769  0.1295
 1996TFB     F223978   6.152   1.375   0.808 -0.0979  0.7880 -0.9206
 1996TFB     F323979   6.000   1.562   0.831  0.1208  0.5554  0.5759
 1996TFB     F423980   5.951   1.376   0.713 -0.0136  0.7557 -0.4839
 1997TFB      B23981   0.984   4.291   2.130 -0.2182  1.0446  0.1734
 1997TFB     F123982   1.025   4.401   2.203  0.4681 -0.1126 -0.3657
 1997TFB     F223983   1.100   4.211   2.112  0.2221  0.2440  0.0545
 1997TFB     F323984   0.899   4.216   2.209  0.7337 -0.7365 -0.0012
 1997TFB     F423985   0.928   4.320   2.007  0.4075  0.0486 -0.5391
 1998TFB      B23986   3.828   3.943   1.877  0.0233 -0.0680 -0.0854
 1998TFB     F123987   3.839   4.063   1.939 -0.1178 -0.2727  0.0651
 1998TFB     F223988   3.956   3.895   1.870 -0.0696  0.1727  0.3956
 1998TFB     F323989   3.754   3.845   1.936  0.0526  0.0071 -0.5487
 1998TFB     F423990   3.781   3.982   1.757  0.2630 -0.3525 -0.1749
 1999TFB      B23991   3.741   1.546   2.995  1.0312 -0.2763  0.8013
 1999TFB     F123992   3.647   1.443   3.017 -0.3165 -0.1517 -0.6707
 1999TFB     F223993   3.765   1.617   3.112  0.2679 -0.0311  0.3507
 1999TFB     F323994   3.858   1.484   2.961 -0.3436  0.3477  0.0963
 1999TFB     F423995   3.691   1.632   2.894  0.2185  0.7235 -0.0890
 2000TFB      B23996   0.782   2.891   0.179 -0.5267  0.4314 -1.1823
 2000TFB     F123997   0.784   2.770   0.120 -0.3606 -0.5298 -0.2697
 2000TFB     F223998   0.843   2.891   0.310  0.2949 -0.0391 -0.2756
 2000TFB     F323999   0.841   2.985   0.086 -0.4631  0.2520  0.5925
 2000TFB     F424000   0.650   2.925   0.201  0.5966  0.2740  0.3847
   6.34617   6.34617   6.34617
