;
;     [EMIM][BF4] ionic liquid Topology File
;
;     EMIM+ cation AMBER Force Field Topology File
;
;     Parameters according to the original paper 
;     de Andrade et. al. (2002) JPC B 106 p. 13344.
;     Modified according to Muller-Plathe 2007 and adjusted to fit the 
;     experimental parameters of the EMImBF4 ionic liquid at 298.15 K.
;     
;     Boltzmann weighted RESP charges for [EMIM][BF4] ion pair.
;
;     References:
;
;     Zhao, W.; Eslami, H.; Cavalcanti, W. L.; Müller-Plathe, F. A Refined All-Atom Model for the Ionic
;     Liquid 1-n-Butyl 3-Methylimidazolium bis(Trifuoromethylsulfonyl)imide [bmim][Tf2N].
;     Z. Phys. Chem. 2007, 221, 1647-1662.
;     https://doi.org/10.1524/zpch.2007.221.11-12.1647
;
;     Elvis S. Böes, Caio L. Firme, Jones de Andrade, Hubert Stassen.
;     Thermophysical properties of [EMIM][BF4] and [EMIM][EtSO4]
;     mixtures with molecular solvents from a charge-transfer-informed
;     force field.
;     Journal of Chemical & Engineering Data 2026 xxxx xxxx.
;     https://doi.org/xxxx.xxxx
;
;     LAST UPDATED 31 AUG 2026.
;

[  atomtypes  ]
;  type    at.nr.  mass      charge  ptype sigma(nm) epsilon(kJ/mol) 
NA           7      14.0067   0.0000  A   3.25000e-01  7.11280e-01
CR           6      12.011    0.0000  A   3.55000e-01  2.92880e-01 ; 3.39967e-01  3.59824e-01
CT           6      12.011    0.0000  A   3.50000e-01  2.76140e-01 ; 3.39967e-01  4.57730e-01
CW           6      12.011    0.0000  A   3.55000e-01  2.92880e-01 ; 3.39967e-01  3.59824e-01
HC           1       1.008    0.0000  A   2.50000e-01  6.56888e-02 ; 2.64953e-01  6.56888e-02
H1           1       1.008    0.0000  A   1.92000e-01  6.56888e-02 ; 2.47135e-01  6.56888e-02
H4           1       1.008    0.0000  A   1.72000e-01  1.25520e-01 ; 2.51055e-01  6.27600e-02
H5           1       1.008    0.0000  A   1.72000e-01  1.25520e-01 ; 2.42146e-01  6.27600e-02

[ bondtypes ]
; i    j  func       b0          kb
  CT CT         1    0.15260   259408.0 ; 7,(1986),230; AA, SUGARS
  CT HC         1    0.10900   284512.0 ; ged from 331 bsd on NMA nmodes; AA, SUGARS
  CT H1         1    0.10900   284512.0 ; ged from 331 bsd on NMA nmodes; AA, RIBOSE
  CR H5         1    0.10800   307105.6 ; ged from 340. bsd on C6H6 nmodes;HIS
  CR NA         1    0.13430   399153.6 ; 7,(1986),230; HIS
  CW H4         1    0.10800   307105.6 ; ged from 340. bsd on C6H6 nmodes;HIS(epsilon,+)
  CW NA         1    0.13810   357313.6 ; 7,(1986),230; HIS,TRP
  NA CT         1    0.14750   282001.6 ; de Andrade et. al. 2002.
  CW CW         1    0.13500   459403.2 ; de Andrade et. al. 2002.

[ angletypes ]
;  i    j    k  func       th0       cth
CT  CT  CT           1   109.500    334.720 ; 
CT  CT  HC           1   109.500    418.400 ; changed based on NMA nmodes
CT  CT  H1           1   109.500    418.400 ; changed based on NMA nmodes
HC  CT  HC           1   109.500    292.880 ; 
H1  CT  H1           1   109.500    292.880 ; 
H5  CR  NA           1   120.000    292.880 ; AA his
NA  CR  NA           1   120.000    585.760 ; AA his
H4  CW  NA           1   120.000    292.880 ; AA his
CR  NA  CW           1   120.000    585.760 ; AA his
CR  NA  CT           1   128.800    585.760 ; de Andrade et. al. 2002.
CT  NA  CW           1   121.200    585.760 ; de Andrade et. al. 2002.
NA  CW  CW           1   121.200    585.760 ; de Andrade et. al. 2002.
H4  CW  CW           1   119.700    292.880 ; de Andrade et. al. 2002.
NA  CT  H1           1   109.500    418.400 ; de Andrade et. al. 2002.
NA  CT  CT           1   109.500    418.400 ; de Andrade et. al. 2002.

[ dihedraltypes ]
;i  j   k  l	 func	C0  ...  C5
 X   CT  CT  X     9       0.0      0.65084     3  ; JCC,7,(1986),230
 X   CW  NA  X     9     180.0      6.27600     2  ; JCC,7,(1986),230
 X   CR  NA  X     9     180.0      9.72780     2  ; JCC,7,(1986),230
 NA  CW  CW  NA    9     180.00    27.82360     2  ; de Andrade et. al. 2002.
 NA  CW  CW  H4    9     180.00    27.82360     2  ; de Andrade et. al. 2002.
 H4  CW  CW  H4    9     180.00    27.82360     2  ; de Andrade et. al. 2002.
 CW  CW  NA  CR    9     180.00     7.74040     2  ; de Andrade et. al. 2002.
 CW  CW  NA  CT    9     180.00     7.74040     2  ; de Andrade et. al. 2002.
 H4  CW  NA  CR    9     180.00     6.27600     2  ; de Andrade et. al. 2002.
 H4  CW  NA  CT    9     180.00     7.74040     2  ; de Andrade et. al. 2002.
 CW  NA  CT  H1    9       0.00     0.00000     2  ; de Andrade et. al. 2002.
 CW  NA  CT  CT    9       0.00     0.00000     2  ; de Andrade et. al. 2002.
 CR  NA  CT  H1    9       0.00     0.00000     2  ; de Andrade et. al. 2002.
 CR  NA  CT  CT    9       0.00     0.00000     2  ; de Andrade et. al. 2002.

[ dihedraltypes ]
;i  j   k  l	 func      phase      kd      pn
;impropers treated as propers in GROMACS to use correct AMBER analytical function
X   X   CW  H4       4      180.00     4.60240     2	; 
X   X   CR  H5       4      180.00     4.60240     2	; 
X   X   NA  CT       4      180.00     4.18400     2    ; de Andrade et. al. 2002.



                       
