EMIm+ and EtOSO3-
31000
    1EMI     N1    1   4.257   2.786   0.767 -0.9590 -0.5024  0.2743
    1EMI     C2    2   4.129   2.814   0.815  0.2865  0.0875 -0.4011
    1EMI     N3    3   4.077   2.917   0.745 -0.1576 -1.2378 -0.4487
    1EMI     C4    4   4.166   2.944   0.641  0.3157 -0.2809  0.6032
    1EMI     C5    5   4.274   2.869   0.657  0.6325  0.5181 -0.2800
    1EMI     H2    6   4.090   2.780   0.911  0.4004  1.2741 -2.9271
    1EMI     H4    7   4.156   3.016   0.565  0.6800  0.4259  0.0094
    1EMI     H5    8   4.363   2.873   0.589  0.0459 -0.3526 -2.6117
    1EMI    C1'    9   3.946   2.974   0.744  0.6943 -0.2381  0.2072
    1EMI    H1'   10   3.948   3.060   0.805  0.9384 -1.4024  0.4137
    1EMI    H1'   11   3.932   2.995   0.643  1.9463 -2.1669  0.6269
    1EMI    H1'   12   3.870   2.903   0.784 -1.1668 -0.8780  2.2693
    1EMI    C1"   13   4.359   2.693   0.812 -0.4953 -0.1946 -0.2147
    1EMI    H1"   14   4.454   2.750   0.827  1.0665  0.7540  1.1869
    1EMI    H1"   15   4.371   2.624   0.733 -1.4605 -1.8485 -0.3225
    1EMI    C2"   16   4.313   2.614   0.934  0.8451 -0.6741 -0.3925
    1EMI    H2"   17   4.226   2.548   0.911 -1.3524  3.3681 -0.9695
    1EMI    H2"   18   4.397   2.554   0.953 -0.7507  0.0691 -0.5310
    1EMI    H2"   19   4.302   2.683   1.019  0.8795  2.4196 -1.7858
    2EMI     N1   20   2.725   1.290   4.736  0.2408  0.6376 -0.0910
    2EMI     C2   21   2.668   1.414   4.740 -0.6608 -0.1830  0.2823
    2EMI     N3   22   2.745   1.502   4.812 -0.2858 -0.0893 -0.6520
    2EMI     C4   23   2.850   1.428   4.863  0.1281  0.2447 -0.0538
    2EMI     C5   24   2.838   1.298   4.819  0.2002  0.0889 -0.4601
    2EMI     H2   25   2.588   1.451   4.686  0.6507 -1.4665  0.9917
    2EMI     H4   26   2.924   1.476   4.933 -3.8220  1.5256 -0.1559
    2EMI     H5   27   2.897   1.206   4.840 -1.1396 -1.2339 -1.9352
    2EMI    C1'   28   2.708   1.641   4.857  0.5005 -0.3077  0.2310
    2EMI    H1'   29   2.605   1.668   4.857  0.5667 -1.9960  2.0963
    2EMI    H1'   30   2.740   1.653   4.955  0.2680 -0.4958 -0.8437
    2EMI    H1'   31   2.757   1.713   4.790  0.4328 -0.3429  1.2732
    2EMI    C1"   32   2.685   1.169   4.653 -0.1347  0.3357 -0.4992
    2EMI    H1"   33   2.770   1.106   4.651  0.5892  1.6632 -1.2817
    2EMI    H1"   34   2.659   1.203   4.553  3.5318  0.6004  0.7174
    2EMI    C2"   35   2.568   1.098   4.724  0.5170 -0.2318 -0.0932
    2EMI    H2"   36   2.478   1.153   4.741 -1.2595 -3.1410 -2.9453
    2EMI    H2"   37   2.536   1.012   4.662  1.1203 -0.1210  0.6099
    2EMI    H2"   38   2.595   1.056   4.822 -0.3363 -0.4958  2.0739
    3EMI     N1   39   3.124   2.682   4.410 -0.0252  0.2021  0.5635
    3EMI     C2   40   3.171   2.699   4.288  0.4465  0.1494  0.1652
    3EMI     N3   41   3.287   2.633   4.265  0.1647  0.1804 -0.4260
    3EMI     C4   42   3.318   2.574   4.389  0.1371 -0.0402 -0.3592
    3EMI     C5   43   3.213   2.596   4.481  0.2640 -0.5351 -0.3930
    3EMI     H2   44   3.127   2.770   4.218 -1.8170  0.0836 -1.8352
    3EMI     H4   45   3.413   2.519   4.414 -0.0933  0.3726  2.6526
    3EMI     H5   46   3.215   2.571   4.587  2.7948 -0.5164 -0.7956
    3EMI    C1'   47   3.379   2.632   4.151  0.2500  0.1519 -0.7243
    3EMI    H1'   48   3.486   2.604   4.174  0.1050  2.7053 -0.1406
    3EMI    H1'   49   3.334   2.566   4.067  1.0521  0.6884 -0.1012
    3EMI    H1'   50   3.372   2.733   4.113  0.7721 -1.6317  0.0567
    3EMI    C1"   51   2.995   2.730   4.468  0.4337 -0.5001 -0.1350
    3EMI    H1"   52   2.983   2.838   4.460 -1.1228  0.5454  1.3967
    3EMI    H1"   53   2.999   2.711   4.575 -0.6229  2.3831  1.9432
    3EMI    C2"   54   2.874   2.650   4.413  0.2856 -0.0622 -0.0359
    3EMI    H2"   55   2.901   2.568   4.342  1.5456  1.9081  1.7722
    3EMI    H2"   56   2.824   2.611   4.493  0.2349 -1.5289 -1.3666
    3EMI    H2"   57   2.808   2.721   4.363  0.3188  3.2971 -0.0993
    4EMI     N1   58   1.720   6.762   1.652  0.1338 -0.0245 -1.0903
    4EMI     C2   59   1.845   6.762   1.603 -0.0850  0.3830  0.2115
    4EMI     N3   60   1.936   6.744   1.697 -0.3736  0.2413 -0.1268
    4EMI     C4   61   1.864   6.743   1.817 -0.2559 -0.9289 -0.0883
    4EMI     C5   62   1.732   6.746   1.789 -0.0033  0.4624  0.5863
    4EMI     H2   63   1.876   6.772   1.494  0.5675  1.0442 -1.2158
    4EMI     H4   64   1.915   6.730   1.908  0.4495 -0.5082  0.0586
    4EMI     H5   65   1.651   6.741   1.864 -1.8103  0.0333 -0.3293
    4EMI    C1'   66   2.082   6.741   1.695  0.0306  0.3811  0.2930
    4EMI    H1'   67   2.116   6.633   1.699 -0.9414  2.1739  1.5777
    4EMI    H1'   68   2.115   6.790   1.602 -1.6942 -0.7239  1.5179
    4EMI    H1'   69   2.134   6.794   1.770  1.2411  2.1376 -1.5756
    4EMI    C1"   70   1.589   6.801   1.608 -0.2321 -0.0578 -0.3661
    4EMI    H1"   71   1.603   6.872   1.521 -2.0582  4.2570  1.0971
    4EMI    H1"   72   1.540   6.856   1.690 -2.6852  1.2863  1.7744
    4EMI    C2"   73   1.509   6.685   1.562 -0.5988  0.1257  0.5973
    4EMI    H2"   74   1.428   6.722   1.492  1.7106  0.9791 -2.4056
    4EMI    H2"   75   1.576   6.623   1.503  0.7548 -0.6579  3.5816
    4EMI    H2"   76   1.462   6.634   1.643 -1.3222  1.4064 -0.6126
    5EMI     N1   77   6.157   3.561   5.574 -0.1809 -0.0980  0.1090
    5EMI     C2   78   6.237   3.512   5.669  0.0744 -0.8076 -0.3349
    5EMI     N3   79   6.365   3.539   5.631  0.1375 -0.0382  0.4724
    5EMI     C4   80   6.362   3.599   5.510  0.1983 -0.4891  0.1948
    5EMI     C5   81   6.232   3.619   5.475 -0.2728 -0.4208 -0.1343
    5EMI     H2   82   6.195   3.453   5.748  1.3253 -0.7801 -1.4182
    5EMI     H4   83   6.447   3.623   5.448  0.4704  3.1407 -0.0356
    5EMI     H5   84   6.202   3.652   5.380  0.6151  0.6568  0.4168
    5EMI    C1'   85   6.485   3.527   5.701  0.6281  0.3463 -0.9974
    5EMI    H1'   86   6.460   3.543   5.810 -3.0930  1.3730  1.7033
    5EMI    H1'   87   6.535   3.433   5.676 -1.0014  4.1881 -1.2112
    5EMI    H1'   88   6.549   3.609   5.666  2.0821 -0.9987 -2.1349
    5EMI    C1"   89   6.009   3.553   5.549  0.1367 -0.1745  0.0797
    5EMI    H1"   90   5.998   3.496   5.454  0.0825  0.8002 -3.5292
    5EMI    H1"   91   5.971   3.646   5.525 -0.5170  0.7178 -2.4447
    5EMI    C2"   92   5.929   3.503   5.672  0.5526 -0.7322  0.2197
    5EMI    H2"   93   5.820   3.507   5.647  0.3142  2.9619 -2.2198
    5EMI    H2"   94   5.960   3.403   5.702 -0.0563  1.1530 -0.2189
    5EMI    H2"   95   5.948   3.578   5.751  1.7780  1.5880  0.3127
    6EMI     N1   96   3.409   1.706   6.497 -0.2592  0.7533  0.1630
    6EMI     C2   97   3.449   1.736   6.617  0.7153 -0.1937 -0.4684
    6EMI     N3   98   3.378   1.662   6.704  0.3029  0.4406  0.0848
    6EMI     C4   99   3.289   1.585   6.636 -0.1993 -0.0018  0.3228
    6EMI     C5  100   3.306   1.613   6.506  0.0992 -0.6725 -1.1881
    6EMI     H2  101   3.526   1.796   6.653  1.7036 -0.1766 -3.5429
    6EMI     H4  102   3.217   1.516   6.678  0.0420  1.7061 -0.5015
    6EMI     H5  103   3.242   1.562   6.431 -0.7268 -1.1440 -1.0659
    6EMI    C1'  104   3.375   1.665   6.847 -0.9138  0.4278  0.0710
    6EMI    H1'  105   3.439   1.590   6.891  2.0447 -2.3630 -1.8526
    6EMI    H1'  106   3.402   1.769   6.867 -1.6911 -1.5549  0.3032
    6EMI    H1'  107   3.273   1.639   6.873 -0.7246  2.3609 -0.4441
    6EMI    C1"  108   3.454   1.771   6.371 -0.7061  0.3549  0.2038
    6EMI    H1"  109   3.518   1.861   6.392  1.2611  3.8308  0.1690
    6EMI    H1"  110   3.359   1.811   6.322 -0.4525 -2.2688  0.6116
    6EMI    C2"  111   3.539   1.670   6.282 -0.1275 -0.2078  0.6448
    6EMI    H2"  112   3.635   1.648   6.331  0.0975  1.0397 -0.6776
    6EMI    H2"  113   3.476   1.577   6.275  0.7538 -2.1495 -1.6925
    6EMI    H2"  114   3.551   1.722   6.190 -2.9114 -1.6585 -0.9768
    7EMI     N1  115   4.355   0.092   3.876  0.0722 -0.2200  0.7471
    7EMI     C2  116   4.480   0.113   3.838 -0.4978 -0.1821  0.2554
    7EMI     N3  117   4.492   0.124   3.704 -0.6649  0.3513 -0.0822
    7EMI     C4  118   4.364   0.118   3.656 -0.2903  0.0723 -0.0067
    7EMI     C5  119   4.282   0.085   3.757 -0.1392 -0.3075 -0.0291
    7EMI     H2  120   4.562   0.115   3.910  2.9118  0.4690 -2.7488
    7EMI     H4  121   4.340   0.132   3.554 -0.0064 -0.6517 -0.1698
    7EMI     H5  122   4.168   0.086   3.755  0.5621  0.4945 -0.8696
    7EMI    C1'  123   4.602   0.164   3.618  0.7363  0.7999  0.4502
    7EMI    H1'  124   4.593   0.264   3.583  2.5020 -0.2728  2.2627
    7EMI    H1'  125   4.689   0.168   3.683  1.5334 -0.5161 -0.8871
    7EMI    H1'  126   4.609   0.094   3.535 -1.5859 -0.7707  0.0909
    7EMI    C1"  127   4.289   0.080   4.012  0.1415 -0.3833  0.0682
    7EMI    H1"  128   4.178   0.085   4.013 -1.9607  2.0754  2.6262
    7EMI    H1"  129   4.315   0.173   4.064  1.9187 -0.4210 -0.5518
    7EMI    C2"  130   4.324  -0.045   4.092  0.3776 -0.4687  0.4104
    7EMI    H2"  131   4.433  -0.070   4.077  1.8753 -0.6738 -1.0277
    7EMI    H2"  132   4.304  -0.030   4.197  2.3061 -2.8703  0.8115
    7EMI    H2"  133   4.264  -0.133   4.065 -0.6055  0.0834  2.5321
    8EMI     N1  134   3.618   5.674   3.194  0.0220 -0.1451 -0.1560
    8EMI     C2  135   3.620   5.604   3.311  0.3754 -0.2652 -0.8370
    8EMI     N3  136   3.659   5.482   3.290  0.1086  0.3901 -0.6304
    8EMI     C4  137   3.682   5.467   3.156  0.3359 -0.6570  0.4963
    8EMI     C5  138   3.643   5.579   3.096  0.0277 -0.1269 -0.0402
    8EMI     H2  139   3.595   5.633   3.407 -1.0722  1.6638 -2.2746
    8EMI     H4  140   3.712   5.373   3.113 -3.2331 -0.2786 -0.2959
    8EMI     H5  141   3.638   5.585   2.990  0.0892  1.9156  0.6243
    8EMI    C1'  142   3.698   5.377   3.372 -0.1052  0.8701  0.1395
    8EMI    H1'  143   3.798   5.343   3.352  0.6495 -2.2622  0.1525
    8EMI    H1'  144   3.700   5.401   3.475 -1.4169 -3.2665 -1.2369
    8EMI    H1'  145   3.638   5.291   3.369  0.4565  1.1230 -2.3084
    8EMI    C1"  146   3.570   5.809   3.161 -0.7018  0.0439  0.8100
    8EMI    H1"  147   3.635   5.848   3.065  0.6858  0.3100 -3.0441
    8EMI    H1"  148   3.576   5.880   3.243  1.6879  1.0299  1.9761
    8EMI    C2"  149   3.422   5.810   3.109  0.3630  0.1168 -0.2268
    8EMI    H2"  150   3.360   5.754   3.183  1.3345  0.5036  1.0041
    8EMI    H2"  151   3.393   5.915   3.079 -0.9402  3.2553 -0.5039
    8EMI    H2"  152   3.428   5.748   3.020  1.0506  0.5365 -3.6666
    9EMI     N1  153   5.335   4.074   1.542 -0.2849 -0.3578 -0.2467
    9EMI     C2  154   5.301   4.041   1.663  0.1815 -0.5403 -0.6646
    9EMI     N3  155   5.370   4.117   1.751  0.5637 -0.7331 -0.3897
    9EMI     C4  156   5.458   4.187   1.681 -0.0532 -0.6303 -0.2305
    9EMI     C5  157   5.434   4.164   1.549  1.0313  0.1901  0.7224
    9EMI     H2  158   5.230   3.959   1.683 -0.3603  0.9361 -2.5122
    9EMI     H4  159   5.537   4.246   1.725 -2.7997 -0.7375 -0.7769
    9EMI     H5  160   5.485   4.212   1.463 -0.6630  0.3471 -3.1301
    9EMI    C1'  161   5.368   4.126   1.897 -1.1426  0.2727  0.8399
    9EMI    H1'  162   5.361   4.028   1.949 -0.2331 -1.4766 -0.9780
    9EMI    H1'  163   5.461   4.168   1.929 -1.4670 -1.5563  1.0848
    9EMI    H1'  164   5.290   4.203   1.926  1.8557  0.3304 -2.5639
    9EMI    C1"  165   5.273   4.031   1.413  0.5247 -0.1807 -0.0295
    9EMI    H1"  166   5.309   3.933   1.385 -3.2872  2.8301 -0.1329
    9EMI    H1"  167   5.306   4.108   1.341 -2.0367 -1.6213 -0.3746
    9EMI    C2"  168   5.118   4.016   1.417  0.2457 -0.4202 -0.2181
    9EMI    H2"  169   5.059   4.105   1.462  0.4894  2.0585 -0.6783
    9EMI    H2"  170   5.089   3.994   1.320  0.5638  0.1560 -2.8959
    9EMI    H2"  171   5.096   3.930   1.476 -0.0364  0.3384 -1.8671
   10EMI     N1  172   0.952   6.372   4.813 -0.7934  0.2713 -0.3756
   10EMI     C2  173   1.030   6.304   4.738 -0.2213  0.1713 -1.1003
   10EMI     N3  174   0.969   6.216   4.665 -0.2635  0.3637 -0.8880
   10EMI     C4  175   0.836   6.232   4.689  0.6923  0.1313  0.6636
   10EMI     C5  176   0.825   6.327   4.780  0.1418  0.1502  0.0669
   10EMI     H2  177   1.138   6.323   4.735 -1.1720  3.3912 -1.6274
   10EMI     H4  178   0.748   6.183   4.652 -1.6345 -0.7393  2.4345
   10EMI     H5  179   0.735   6.364   4.826  0.5487 -2.1907 -0.5792
   10EMI    C1'  180   1.025   6.109   4.587  0.2655  0.1843 -0.6299
   10EMI    H1'  181   1.034   6.019   4.651 -1.0687  2.2257  1.2794
   10EMI    H1'  182   0.970   6.084   4.500 -0.2148  2.7699 -0.3198
   10EMI    H1'  183   1.123   6.127   4.554  0.2270 -2.6558  0.0773
   10EMI    C1"  184   0.985   6.481   4.907  0.8230  0.0857  0.7295
   10EMI    H1"  185   0.906   6.554   4.914 -1.6719 -0.4614  0.8823
   10EMI    H1"  186   1.083   6.528   4.879  1.7976  3.6301  0.2501
   10EMI    C2"  187   1.005   6.440   5.050  0.2341 -0.4483 -0.2003
   10EMI    H2"  188   0.905   6.446   5.102 -1.3680  0.1933 -1.1588
   10EMI    H2"  189   1.030   6.333   5.064  1.7379  0.6309  0.9323
   10EMI    H2"  190   1.076   6.498   5.099 -0.1796 -0.3466 -0.6111
   11EMI     N1  191   5.105   2.713   2.410 -0.3779 -0.4179 -0.4590
   11EMI     C2  192   5.236   2.700   2.446  0.6880 -0.3112  0.1024
   11EMI     N3  193   5.244   2.596   2.529 -0.1410  0.9871  0.1093
   11EMI     C4  194   5.118   2.541   2.544 -0.3607  0.0412  0.4587
   11EMI     C5  195   5.028   2.610   2.467 -0.4142  0.3826 -0.6120
   11EMI     H2  196   5.313   2.767   2.424 -1.0366 -1.3141 -1.1038
   11EMI     H4  197   5.104   2.459   2.606 -1.0661 -1.0112 -0.7364
   11EMI     H5  198   4.926   2.594   2.446 -2.6714  0.9468 -1.9682
   11EMI    C1'  199   5.359   2.528   2.588 -0.5473 -0.3420 -0.0866
   11EMI    H1'  200   5.342   2.513   2.695 -0.6012  2.7855 -2.2812
   11EMI    H1'  201   5.380   2.436   2.540  2.4260 -0.5000 -0.9275
   11EMI    H1'  202   5.453   2.592   2.576 -0.9000 -1.8905  3.0758
   11EMI    C1"  203   5.037   2.824   2.341 -0.3393 -0.5986  0.2735
   11EMI    H1"  204   5.079   2.918   2.374 -2.8052  0.7718 -2.1160
   11EMI    H1"  205   4.927   2.829   2.362 -1.7802 -1.4063  1.5693
   11EMI    C2"  206   5.054   2.806   2.192  0.0981  0.2767 -0.0877
   11EMI    H2"  207   5.008   2.711   2.158 -0.8771  2.4541 -0.9841
   11EMI    H2"  208   5.002   2.884   2.131 -1.1984 -2.1220  1.4659
   11EMI    H2"  209   5.165   2.806   2.165  1.3760 -3.7842  0.9656
   12EMI     N1  210   3.778   3.500   2.767  0.0807 -0.1102 -0.8343
   12EMI     C2  211   3.673   3.524   2.690  0.4595 -0.2047 -0.0455
   12EMI     N3  212   3.598   3.417   2.680 -0.1234 -1.3906  0.5466
   12EMI     C4  213   3.659   3.317   2.751 -0.7231 -0.4863  0.1684
   12EMI     C5  214   3.778   3.367   2.807 -0.9523  0.3591  0.3204
   12EMI     H2  215   3.670   3.613   2.638  0.2525 -0.7932  1.0925
   12EMI     H4  216   3.623   3.220   2.774  1.7056  0.0871 -1.6695
   12EMI     H5  217   3.850   3.321   2.873  1.3419  0.1584  0.3531
   12EMI    C1'  218   3.481   3.399   2.605  0.3697 -0.3183  0.2972
   12EMI    H1'  219   3.448   3.296   2.614  0.8968  0.6665  0.7062
   12EMI    H1'  220   3.406   3.459   2.655 -0.6697  2.4879  0.3909
   12EMI    H1'  221   3.493   3.427   2.497 -0.0819  2.6485 -0.7592
   12EMI    C1"  222   3.885   3.594   2.803 -0.8009  0.2029 -0.1016
   12EMI    H1"  223   3.908   3.667   2.721  0.6334  0.3388  0.7773
   12EMI    H1"  224   3.976   3.544   2.838  0.4695  0.4413  2.3212
   12EMI    C2"  225   3.832   3.668   2.922  0.3699 -0.0481  0.0627
   12EMI    H2"  226   3.729   3.698   2.902 -2.1184 -1.0850 -1.3482
   12EMI    H2"  227   3.831   3.604   3.008  1.9820 -0.9743  1.8688
   12EMI    H2"  228   3.894   3.755   2.946 -1.5407 -2.5814  0.0760
   13EMI     N1  229   2.962   6.516   5.435 -0.6682 -0.3741 -0.2166
   13EMI     C2  230   3.018   6.475   5.325  0.4595  0.1974  0.4282
   13EMI     N3  231   2.986   6.558   5.221  0.1718  0.1291  0.3024
   13EMI     C4  232   2.899   6.647   5.268 -0.0546  0.5128  0.0581
   13EMI     C5  233   2.882   6.625   5.403 -0.9475  0.3628  0.3775
   13EMI     H2  234   3.083   6.388   5.323  2.2866 -0.2847 -0.6175
   13EMI     H4  235   2.863   6.727   5.203  1.9846 -0.6846  0.0385
   13EMI     H5  236   2.823   6.684   5.468 -0.8763  1.8695 -3.2739
   13EMI    C1'  237   3.019   6.542   5.080  0.4556 -0.8470 -0.1611
   13EMI    H1'  238   3.023   6.445   5.057  1.0783  1.7735 -1.0427
   13EMI    H1'  239   2.959   6.602   5.019 -1.1649 -3.0727  0.8472
   13EMI    H1'  240   3.122   6.581   5.059 -1.7884 -1.2579 -1.8438
   13EMI    C1"  241   2.979   6.461   5.573  0.3542  0.3603  0.2947
   13EMI    H1"  242   2.948   6.355   5.571 -0.0725  0.0442  0.5140
   13EMI    H1"  243   2.905   6.515   5.638 -1.0621 -2.3230 -0.2679
   13EMI    C2"  244   3.117   6.481   5.626  0.5457 -0.1818  0.7711
   13EMI    H2"  245   3.120   6.472   5.736  0.2043  1.3537 -0.1036
   13EMI    H2"  246   3.183   6.406   5.585 -2.2646 -0.0079  0.1218
   13EMI    H2"  247   3.156   6.575   5.600  0.2837 -3.0744 -0.0022
   14EMI     N1  248   3.116   5.498   0.430 -0.2135 -0.2437 -0.7936
   14EMI     C2  249   3.181   5.384   0.395  1.1989  0.0198  0.4151
   14EMI     N3  250   3.154   5.282   0.477 -0.3769 -0.1834 -0.5218
   14EMI     C4  251   3.055   5.328   0.557  0.3215 -0.3190 -0.7842
   14EMI     C5  252   3.032   5.458   0.531  0.1068  0.3970  0.2881
   14EMI     H2  253   3.239   5.367   0.309 -0.6779 -1.5502  1.9357
   14EMI     H4  254   3.014   5.266   0.641  2.1278 -0.6553  2.5720
   14EMI     H5  255   2.958   5.522   0.576 -2.8376 -0.9198 -0.5080
   14EMI    C1'  256   3.217   5.150   0.478 -0.2494  0.1777 -0.2069
   14EMI    H1'  257   3.193   5.092   0.386 -0.5458  2.0132 -0.3281
   14EMI    H1'  258   3.322   5.165   0.485 -0.3493  1.1644 -0.0824
   14EMI    H1'  259   3.183   5.085   0.557 -2.1772 -0.6290  0.2370
   14EMI    C1"  260   3.128   5.633   0.372 -0.1797 -0.1541 -0.2764
   14EMI    H1"  261   3.220   5.673   0.409  1.8363  0.6086  2.1382
   14EMI    H1"  262   3.039   5.691   0.386  0.1146  1.9457  0.9505
   14EMI    C2"  263   3.156   5.622   0.219  0.0848 -0.0592 -0.4689
   14EMI    H2"  264   3.155   5.721   0.167  0.2651  0.2063 -1.5192
   14EMI    H2"  265   3.256   5.583   0.198 -0.7262  0.0489 -0.6954
   14EMI    H2"  266   3.079   5.553   0.172  1.4809  0.4778  1.3800
   15EMI     N1  267   1.642   4.305   5.724  0.0826  0.3185  0.0806
   15EMI     C2  268   1.702   4.188   5.763 -0.3119 -0.2382 -0.7242
   15EMI     N3  269   1.606   4.113   5.828 -0.0909 -0.1737  0.1177
   15EMI     C4  270   1.488   4.193   5.845  0.6962  0.2792  0.2944
   15EMI     C5  271   1.514   4.309   5.775 -0.3218  1.1867  0.4539
   15EMI     H2  272   1.803   4.147   5.737  1.1578  3.3991 -1.4671
   15EMI     H4  273   1.399   4.167   5.902  1.9013 -1.2890  1.8892
   15EMI     H5  274   1.449   4.386   5.780  0.2538  0.8549 -0.1441
   15EMI    C1'  275   1.605   3.971   5.859 -0.0827  0.1809 -0.5667
   15EMI    H1'  276   1.532   3.969   5.941  1.2797 -2.0443  2.7834
   15EMI    H1'  277   1.588   3.910   5.769 -0.9997  1.2378 -0.7956
   15EMI    H1'  278   1.699   3.946   5.900 -1.6204 -1.2952  2.2586
   15EMI    C1"  279   1.701   4.423   5.653 -0.0515 -0.3481 -0.4484
   15EMI    H1"  280   1.634   4.441   5.570 -0.5357 -0.9640  0.2958
   15EMI    H1"  281   1.804   4.410   5.608  2.4881  0.1031 -0.4942
   15EMI    C2"  282   1.719   4.554   5.735 -0.7995  0.4686  0.2934
   15EMI    H2"  283   1.798   4.552   5.809  4.2005 -1.2372 -1.6063
   15EMI    H2"  284   1.740   4.641   5.668  0.4919  1.5085 -3.0676
   15EMI    H2"  285   1.621   4.564   5.782 -2.8253 -0.3674  0.2814
   16EMI     N1  286   3.797   5.070   5.203 -0.3994 -0.0198  0.0046
   16EMI     C2  287   3.793   5.014   5.084 -0.0901 -0.7714  0.0158
   16EMI     N3  288   3.711   4.906   5.079  0.0879  0.2347 -0.2726
   16EMI     C4  289   3.652   4.906   5.210  0.5482  0.1558  0.1789
   16EMI     C5  290   3.699   5.010   5.283 -0.5685  0.4838 -0.4020
   16EMI     H2  291   3.874   5.035   5.013 -2.0021 -2.9427  1.4765
   16EMI     H4  292   3.589   4.833   5.246  2.7236 -0.0895 -2.8898
   16EMI     H5  293   3.684   5.043   5.383  2.7258  0.5237 -1.0203
   16EMI    C1'  294   3.682   4.811   4.970 -0.4077  0.3061  0.2753
   16EMI    H1'  295   3.614   4.853   4.898  1.3217 -1.6387  0.6524
   16EMI    H1'  296   3.767   4.766   4.928 -0.0151  2.1506 -1.6425
   16EMI    H1'  297   3.620   4.731   5.012  2.2050  0.0748 -1.0377
   16EMI    C1"  298   3.900   5.148   5.254 -0.0115 -0.0188 -0.4385
   16EMI    H1"  299   3.982   5.090   5.217  3.1106  0.6793 -0.8889
   16EMI    H1"  300   3.905   5.157   5.360 -0.2720  1.0326 -1.2281
   16EMI    C2"  301   3.901   5.286   5.200  0.1992  0.7194 -0.5837
   16EMI    H2"  302   3.817   5.347   5.238 -2.1959 -1.7396  2.2574
   16EMI    H2"  303   3.996   5.327   5.214 -0.3071 -2.4098 -1.1456
   16EMI    H2"  304   3.898   5.284   5.091  1.2491 -1.5591 -1.0691
   17EMI     N1  305   0.125   2.271   1.875 -0.6009  0.3305  0.1140
   17EMI     C2  306   0.231   2.311   1.802 -0.0599  0.3619 -0.3882
   17EMI     N3  307   0.305   2.202   1.771  0.2390  0.4402  0.7375
   17EMI     C4  308   0.243   2.092   1.832 -0.9315  0.4491  0.5884
   17EMI     C5  309   0.138   2.132   1.892  0.6862 -0.6540  0.0254
   17EMI     H2  310   0.256   2.407   1.785 -1.7795 -1.3906 -0.0582
   17EMI     H4  311   0.281   1.993   1.819  0.4971  0.7172 -0.5335
   17EMI     H5  312   0.069   2.070   1.944  2.6069 -1.8284  0.2809
   17EMI    C1'  313   0.427   2.191   1.691  0.4790  0.0925 -0.2761
   17EMI    H1'  314   0.417   2.255   1.600  1.3597 -2.7529  0.6541
   17EMI    H1'  315   0.516   2.226   1.749  1.2257  0.0876  0.5881
   17EMI    H1'  316   0.431   2.090   1.659 -2.0116  0.8190  0.2991
   17EMI    C1"  317  -0.002   2.338   1.922 -0.0028 -0.1305 -0.1187
   17EMI    H1"  318   0.024   2.428   1.977 -0.2117 -0.6953  0.5308
   17EMI    H1"  319  -0.059   2.263   1.988 -0.1610  1.1388  0.5002
   17EMI    C2"  320  -0.077   2.383   1.797 -0.0319 -0.2580  1.2448
   17EMI    H2"  321  -0.039   2.477   1.750 -2.1744  2.0505 -0.4462
   17EMI    H2"  322  -0.069   2.311   1.715 -0.5934  2.4112 -0.5479
   17EMI    H2"  323  -0.184   2.404   1.826 -2.0086  0.8083 -2.0424
   18EMI     N1  324   3.198   6.699   0.186 -0.3105  0.3826  0.8521
   18EMI     C2  325   3.081   6.659   0.129 -0.3270  0.2567 -0.7056
   18EMI     N3  326   3.074   6.712   0.007 -0.0263  0.1395 -0.1646
   18EMI     C4  327   3.192   6.772  -0.019 -0.7479 -0.6975  0.0480
   18EMI     C5  328   3.267   6.773   0.093 -0.2470 -0.3597  0.1109
   18EMI     H2  329   3.001   6.609   0.178 -2.0732 -0.1913 -0.8888
   18EMI     H4  330   3.214   6.821  -0.109 -2.6225  0.5963 -1.3153
   18EMI     H5  331   3.368   6.821   0.094 -0.7097 -4.3681 -1.9701
   18EMI    C1'  332   2.964   6.715  -0.088  0.9466 -0.3912  1.1662
   18EMI    H1'  333   2.936   6.608  -0.109 -0.1356 -0.9375  0.4684
   18EMI    H1'  334   2.881   6.764  -0.048  2.0764  0.0654  3.3501
   18EMI    H1'  335   2.995   6.769  -0.174  0.4336 -0.7507  0.3853
   18EMI    C1"  336   3.253   6.675   0.323 -0.2700 -0.0457 -0.7755
   18EMI    H1"  337   3.285   6.774   0.360  1.1729  0.6578 -1.6933
   18EMI    H1"  338   3.335   6.598   0.327  0.2269 -1.7295 -0.5349
   18EMI    C2"  339   3.142   6.622   0.413 -0.0489  0.4819  0.2930
   18EMI    H2"  340   3.097   6.528   0.370  2.0242 -0.4574  0.0792
   18EMI    H2"  341   3.181   6.591   0.515  1.9902 -0.3745 -0.6368
   18EMI    H2"  342   3.064   6.702   0.414 -0.4864  2.8312 -1.3310
   19EMI     N1  343   3.601   0.177   2.246 -0.4047 -0.5014  0.5430
   19EMI     C2  344   3.670   0.062   2.238 -0.1840  0.3459 -0.9685
   19EMI     N3  345   3.585  -0.041   2.247  0.8073  0.3364  0.3065
   19EMI     C4  346   3.457   0.017   2.242  0.4260 -0.2365 -0.7039
   19EMI     C5  347   3.463   0.154   2.239 -0.5460  0.5550 -0.3386
   19EMI     H2  348   3.778   0.061   2.243 -0.2754 -0.7964 -0.0960
   19EMI     H4  349   3.367  -0.041   2.245  0.5014 -0.2775 -1.6319
   19EMI     H5  350   3.381   0.220   2.243 -0.9623 -1.8858  1.4309
   19EMI    C1'  351   3.598  -0.185   2.269 -0.5564 -0.3534  0.2681
   19EMI    H1'  352   3.500  -0.219   2.307  0.9843  0.3389  2.0256
   19EMI    H1'  353   3.631  -0.243   2.179  0.9249 -0.8396 -0.8477
   19EMI    H1'  354   3.675  -0.197   2.342  1.0533 -0.3104 -1.1236
   19EMI    C1"  355   3.650   0.319   2.252 -0.5826  0.5462  0.1411
   19EMI    H1"  356   3.645   0.360   2.153  0.6533  1.7651 -1.3707
   19EMI    H1"  357   3.745   0.331   2.300 -0.1037  1.4064 -1.9497
   19EMI    C2"  358   3.563   0.413   2.341 -1.0507  0.4710  0.1633
   19EMI    H2"  359   3.472   0.438   2.296  3.3807 -1.1853 -1.9239
   19EMI    H2"  360   3.549   0.361   2.438 -0.5010  0.1684  3.0701
   19EMI    H2"  361   3.611   0.507   2.365 -1.4077 -2.8312 -0.0146
   20EMI     N1  362   6.164   5.868   5.284  0.0307 -0.2787  0.5904
   20EMI     C2  363   6.288   5.908   5.245  0.3988 -0.2673 -0.6676
   20EMI     N3  364   6.332   6.000   5.333 -0.1405  0.1286 -0.4950
   20EMI     C4  365   6.238   6.019   5.430  0.4390  0.0223 -0.0629
   20EMI     C5  366   6.134   5.938   5.401  0.0987  1.1486 -0.4708
   20EMI     H2  367   6.332   5.880   5.152  0.2361 -0.1643  0.3096
   20EMI     H4  368   6.254   6.086   5.518  0.4714  1.1480  2.2554
   20EMI     H5  369   6.041   5.938   5.457 -1.0211  0.5751 -0.8527
   20EMI    C1'  370   6.458   6.074   5.326  0.8850 -0.2611 -0.0870
   20EMI    H1'  371   6.450   6.158   5.395 -0.2811 -3.4582  1.6074
   20EMI    H1'  372   6.549   6.018   5.351  0.7160  0.8134  1.4505
   20EMI    H1'  373   6.476   6.104   5.224  1.5761 -1.1882  1.1129
   20EMI    C1"  374   6.069   5.779   5.217 -0.5018 -0.1817 -0.0656
   20EMI    H1"  375   6.016   5.726   5.289  0.8913 -0.0286 -1.7022
   20EMI    H1"  376   6.116   5.706   5.149 -2.2647  0.3231 -2.7275
   20EMI    C2"  377   5.971   5.862   5.132 -0.6614  0.4971 -0.7178
   20EMI    H2"  378   5.947   5.953   5.179  3.8243 -1.3238 -0.4703
   20EMI    H2"  379   6.020   5.886   5.041  0.3478 -0.8698  0.0132
   20EMI    H2"  380   5.884   5.798   5.109 -0.7267 -0.0630  1.6122
   21EMI     N1  381   4.225   5.779   5.894  0.0619  0.3266  0.0570
   21EMI     C2  382   4.349   5.813   5.912  0.6316 -0.3296  0.2435
   21EMI     N3  383   4.425   5.718   5.963 -0.3762 -0.4175  0.0667
   21EMI     C4  384   4.340   5.610   5.974  0.1182 -0.2844  0.0794
   21EMI     C5  385   4.217   5.647   5.936  0.1181  0.8196 -0.1934
   21EMI     H2  386   4.387   5.915   5.908  0.1516 -3.1288 -3.2926
   21EMI     H4  387   4.381   5.515   6.011 -0.2895  1.3515  0.2838
   21EMI     H5  388   4.132   5.584   5.926  2.1555  0.0936  0.0431
   21EMI    C1'  389   4.554   5.725   6.038  0.6417  0.0625  0.3443
   21EMI    H1'  390   4.624   5.635   6.022  1.4440 -0.6993 -0.6333
   21EMI    H1'  391   4.599   5.827   6.020 -0.7516 -1.6911 -2.6144
   21EMI    H1'  392   4.533   5.732   6.151  0.9376  3.4358  2.0014
   21EMI    C1"  393   4.113   5.858   5.842 -0.0403 -0.6763  0.0190
   21EMI    H1"  394   4.043   5.789   5.806  1.4738  1.1161 -0.4666
   21EMI    H1"  395   4.136   5.931   5.762 -1.9141  0.1116 -1.8292
   21EMI    C2"  396   4.050   5.933   5.958  0.2607 -0.4125 -0.1222
   21EMI    H2"  397   3.941   5.960   5.944  0.9429  1.2089  0.4127
   21EMI    H2"  398   4.059   5.858   6.037  1.5977  0.2769  0.9103
   21EMI    H2"  399   4.105   6.020   5.982 -2.2117 -2.7212  0.4189
   22EMI     N1  400   0.532   5.204   5.707 -0.1129 -0.2182 -0.5514
   22EMI     C2  401   0.613   5.122   5.633  0.6188 -0.1779  0.3100
   22EMI     N3  402   0.730   5.177   5.602  0.5500 -0.1439  0.3990
   22EMI     C4  403   0.727   5.305   5.664  0.5948 -0.7177  0.2668
   22EMI     C5  404   0.605   5.316   5.722  0.4403  0.7191  0.6027
   22EMI     H2  405   0.579   5.022   5.612 -2.4504  0.8344  0.1444
   22EMI     H4  406   0.804   5.379   5.663 -1.2762 -0.5266  3.4308
   22EMI     H5  407   0.569   5.402   5.776 -1.9316 -0.6176 -0.0757
   22EMI    C1'  408   0.851   5.133   5.534 -0.1220  0.0598 -0.1237
   22EMI    H1'  409   0.834   5.147   5.423 -1.4887 -0.7482  1.4950
   22EMI    H1'  410   0.937   5.198   5.577 -1.6528 -2.1544  0.9438
   22EMI    H1'  411   0.884   5.034   5.551  2.4947  1.3149 -1.3206
   22EMI    C1"  412   0.397   5.200   5.756 -0.1434  0.6595 -0.2470
   22EMI    H1"  413   0.365   5.307   5.754 -2.3504 -0.9189 -1.5631
   22EMI    H1"  414   0.384   5.163   5.855 -2.2680 -2.1116 -0.7339
   22EMI    C2"  415   0.305   5.111   5.672 -0.2450  0.2289 -0.7351
   22EMI    H2"  416   0.328   5.004   5.693 -0.7152 -2.1621 -3.1232
   22EMI    H2"  417   0.200   5.134   5.697 -1.0638  2.0037 -2.1600
   22EMI    H2"  418   0.316   5.132   5.565 -1.5118 -1.1405 -0.3860
   23EMI     N1  419   3.227   0.592   0.443 -0.5712 -0.2644 -0.7760
   23EMI     C2  420   3.317   0.589   0.347 -0.0188  0.3873  1.1717
   23EMI     N3  421   3.267   0.605   0.225 -0.4498 -0.1435 -0.1195
   23EMI     C4  422   3.131   0.625   0.253  0.1625  0.0828 -0.2830
   23EMI     C5  423   3.108   0.618   0.384 -0.2716 -0.1982 -0.0100
   23EMI     H2  424   3.423   0.564   0.352  2.5285  0.9892 -3.2036
   23EMI     H4  425   3.058   0.654   0.181  1.4238 -0.1274  0.3070
   23EMI     H5  426   3.006   0.622   0.435 -0.6887 -1.1362  0.8335
   23EMI    C1'  427   3.318   0.600   0.091  0.0190  0.6821  0.2905
   23EMI    H1'  428   3.432   0.599   0.096 -0.8813 -1.8776 -0.2953
   23EMI    H1'  429   3.266   0.517   0.037 -0.8662  1.4936  0.7413
   23EMI    H1'  430   3.291   0.689   0.033  0.4526  1.0122 -1.3788
   23EMI    C1"  431   3.236   0.583   0.594 -0.3663 -0.0727 -0.5587
   23EMI    H1"  432   3.207   0.677   0.637 -1.3746 -1.2476 -0.3826
   23EMI    H1"  433   3.333   0.569   0.636  0.5893 -1.2114  0.9035
   23EMI    C2"  434   3.154   0.468   0.651 -1.0151  0.0545 -0.3113
   23EMI    H2"  435   3.187   0.436   0.748  0.6549 -0.2689  1.9045
   23EMI    H2"  436   3.052   0.502   0.677  0.3392  1.0626  2.7549
   23EMI    H2"  437   3.167   0.384   0.580  0.9468 -0.8043 -1.0186
   24EMI     N1  438   3.497   3.977   3.796 -0.1064 -0.6943  0.1804
   24EMI     C2  439   3.635   3.981   3.767 -0.3316  0.0933 -0.2599
   24EMI     N3  440   3.673   4.105   3.748 -0.0158 -0.8673 -0.1875
   24EMI     C4  441   3.560   4.183   3.752 -0.9561  0.1264 -0.9947
   24EMI     C5  442   3.451   4.106   3.783 -0.2839  0.5064  0.7773
   24EMI     H2  443   3.695   3.890   3.765 -3.3488  1.1711 -0.0512
   24EMI     H4  444   3.551   4.285   3.734 -0.8894  1.0649  1.7309
   24EMI     H5  445   3.355   4.140   3.798  3.5095 -1.3213 -1.0433
   24EMI    C1'  446   3.809   4.155   3.716  0.0673  0.1596 -0.5336
   24EMI    H1'  447   3.817   4.253   3.761  0.7510 -0.1290 -0.4383
   24EMI    H1'  448   3.888   4.080   3.746  0.3413 -0.5721  1.1325
   24EMI    H1'  449   3.819   4.173   3.612  1.3238  0.3468  1.8103
   24EMI    C1"  450   3.404   3.876   3.844  0.3440  0.6609 -0.3316
   24EMI    H1"  451   3.305   3.916   3.851 -1.6714  0.6772 -1.4354
   24EMI    H1"  452   3.446   3.837   3.937  2.0857  3.0918 -1.3799
   24EMI    C2"  453   3.384   3.761   3.748 -0.4571 -0.0804  0.0212
   24EMI    H2"  454   3.359   3.802   3.646 -0.4169 -0.2748 -0.4795
   24EMI    H2"  455   3.473   3.698   3.747 -0.6994  1.8745  0.9504
   24EMI    H2"  456   3.302   3.703   3.780 -1.0374 -0.0006 -2.0815
   25EMI     N1  457   3.965   0.112   5.728  0.1005  0.2324 -0.0280
   25EMI     C2  458   3.881   0.076   5.828  0.1315 -0.2257  0.5080
   25EMI     N3  459   3.767   0.147   5.819 -1.0419  0.2857 -0.5125
   25EMI     C4  460   3.777   0.230   5.709  0.0809  0.2371 -0.6235
   25EMI     C5  461   3.899   0.198   5.651  0.4297 -0.0834 -1.0093
   25EMI     H2  462   3.906  -0.000   5.897  0.4029 -1.0612  0.5846
   25EMI     H4  463   3.699   0.299   5.679 -0.8039 -0.0039 -0.6340
   25EMI     H5  464   3.937   0.241   5.553 -1.9001  1.7355 -0.9488
   25EMI    C1'  465   3.649   0.151   5.908  0.2490 -0.1238  0.1374
   25EMI    H1'  466   3.620   0.246   5.949 -2.6116 -1.8109 -1.8021
   25EMI    H1'  467   3.565   0.099   5.870  1.0803  2.3262 -1.6041
   25EMI    H1'  468   3.676   0.083   5.986 -0.7155 -0.2638 -1.0590
   25EMI    C1"  469   4.104   0.069   5.696  0.5768 -0.3010 -0.1550
   25EMI    H1"  470   4.181   0.125   5.748  0.0148 -0.1889  1.5862
   25EMI    H1"  471   4.130   0.082   5.595 -2.4926  0.6936 -2.1648
   25EMI    C2"  472   4.126  -0.073   5.759  0.0693 -0.5094  0.2674
   25EMI    H2"  473   4.111  -0.069   5.861  1.9498 -0.2930 -2.8643
   25EMI    H2"  474   4.072  -0.163   5.717  2.2536 -2.4246  1.7095
   25EMI    H2"  475   4.228  -0.107   5.756  0.1462 -0.6393  0.3166
   26EMI     N1  476   4.173   3.912   6.759 -0.7419 -0.7662  0.5818
   26EMI     C2  477   4.185   3.925   6.890 -0.4913 -0.2863 -0.7829
   26EMI     N3  478   4.205   4.055   6.919 -0.0089  0.0259  0.4209
   26EMI     C4  479   4.215   4.125   6.799  0.0879  0.7035 -0.0822
   26EMI     C5  480   4.192   4.036   6.704  0.5310 -0.5363 -0.4317
   26EMI     H2  481   4.193   3.854   6.966  3.7058  2.1823 -2.0235
   26EMI     H4  482   4.246   4.225   6.782 -1.9204  0.8710  0.8193
   26EMI     H5  483   4.197   4.046   6.597 -0.3802  2.4842  0.4323
   26EMI    C1'  484   4.243   4.117   7.044 -0.5347 -0.0829  0.1766
   26EMI    H1'  485   4.264   4.223   7.028 -0.1330  1.5928  2.0534
   26EMI    H1'  486   4.170   4.094   7.120 -2.3086 -0.1455 -1.0065
   26EMI    H1'  487   4.341   4.084   7.069 -0.0466 -1.5913 -1.8483
   26EMI    C1"  488   4.125   3.805   6.673  0.4209  0.0665  0.3924
   26EMI    H1"  489   4.063   3.850   6.588 -0.0037  2.2270 -0.4794
   26EMI    H1"  490   4.057   3.735   6.731 -4.1891 -0.5926  1.8211
   26EMI    C2"  491   4.249   3.726   6.614 -0.5863  0.7701  0.2105
   26EMI    H2"  492   4.297   3.673   6.698  0.9396 -0.8169 -1.2120
   26EMI    H2"  493   4.223   3.659   6.537 -1.3536 -0.5166 -3.3319
   26EMI    H2"  494   4.314   3.794   6.566  1.1699 -0.5955  3.3313
   27EMI     N1  495   4.191   2.830   1.541 -0.7383  0.3375 -1.1966
   27EMI     C2  496   4.200   2.889   1.668  0.5708  0.4334  0.1434
   27EMI     N3  497   4.082   2.861   1.736 -0.3443 -0.0866 -0.0117
   27EMI     C4  498   4.002   2.791   1.659 -0.2086  0.4433  0.2487
   27EMI     C5  499   4.071   2.763   1.542 -0.4531  0.1181 -0.6383
   27EMI     H2  500   4.285   2.932   1.717 -0.0779 -2.4322  0.3223
   27EMI     H4  501   3.911   2.743   1.692 -5.0537 -0.6260  1.5094
   27EMI     H5  502   4.031   2.703   1.466 -0.9826 -0.9348 -2.5396
   27EMI    C1'  503   4.048   2.885   1.879  0.0290 -0.3047 -1.1916
   27EMI    H1'  504   4.068   2.986   1.903  1.4598  2.2675  0.1617
   27EMI    H1'  505   3.938   2.866   1.891  1.3732  1.3066  0.5472
   27EMI    H1'  506   4.110   2.817   1.941 -1.0407 -1.6344 -1.0220
   27EMI    C1"  507   4.293   2.800   1.443 -0.7680  0.6550  0.6336
   27EMI    H1"  508   4.236   2.772   1.349 -1.9417  2.0519 -0.7232
   27EMI    H1"  509   4.339   2.706   1.484  1.4619 -0.8065 -0.8163
   27EMI    C2"  510   4.397   2.903   1.434  0.2858 -0.6603  0.8090
   27EMI    H2"  511   4.480   2.855   1.396 -2.0732 -0.2390  2.9606
   27EMI    H2"  512   4.363   2.977   1.361 -0.0385 -2.0676  1.4669
   27EMI    H2"  513   4.426   2.944   1.532  0.8060 -1.3527  0.5691
   28EMI     N1  514   1.830   5.268   4.161  0.0093 -0.8667 -0.0828
   28EMI     C2  515   1.900   5.342   4.069 -0.5065  0.5658  0.0013
   28EMI     N3  516   2.032   5.301   4.075  0.5831  0.4569  0.0190
   28EMI     C4  517   2.046   5.205   4.170 -0.1189 -0.1989 -0.8460
   28EMI     C5  518   1.925   5.188   4.223  0.2170 -0.6887 -0.5001
   28EMI     H2  519   1.868   5.428   4.020  0.6431 -0.9415  1.3718
   28EMI     H4  520   2.131   5.145   4.194 -0.0701  3.0090 -1.1741
   28EMI     H5  521   1.886   5.111   4.294  1.4724 -1.8066 -3.3072
   28EMI    C1'  522   2.154   5.347   4.010  0.4636 -0.1374 -0.1415
   28EMI    H1'  523   2.224   5.402   4.080  0.7930 -1.5388 -1.5203
   28EMI    H1'  524   2.211   5.267   3.962  0.4036 -0.0065 -2.7380
   28EMI    H1'  525   2.117   5.413   3.931 -0.0371  0.6962 -0.5045
   28EMI    C1"  526   1.697   5.273   4.207  0.3158 -0.0167  0.1931
   28EMI    H1"  527   1.665   5.373   4.239 -1.5127  0.3524 -0.5806
   28EMI    H1"  528   1.690   5.200   4.282 -0.2288  1.5659  0.5650
   28EMI    C2"  529   1.607   5.228   4.092  0.2026  0.8549  0.3843
   28EMI    H2"  530   1.617   5.301   4.003  1.6214  1.1569 -2.7974
   28EMI    H2"  531   1.647   5.135   4.060  0.3886  0.4854  1.4039
   28EMI    H2"  532   1.506   5.215   4.125  1.6485  1.1417 -0.2108
   29EMI     N1  533   6.799   3.048   6.069  0.1114 -0.3865  0.0547
   29EMI     C2  534   6.878   3.048   6.179 -0.7305 -0.3559  0.4746
   29EMI     N3  535   6.926   3.172   6.209 -0.1738 -0.1305 -0.1396
   29EMI     C4  536   6.863   3.254   6.122 -0.1484 -0.6204  0.4288
   29EMI     C5  537   6.789   3.181   6.033  0.6711  0.2305 -0.1826
   29EMI     H2  538   6.912   2.955   6.227  1.1458  0.6707 -1.3596
   29EMI     H4  539   6.873   3.364   6.121 -0.7055  1.4994 -1.0969
   29EMI     H5  540   6.732   3.231   5.953  1.4254  0.7180 -0.1252
   29EMI    C1'  541   7.027   3.210   6.309 -0.2586 -0.3782 -0.4435
   29EMI    H1'  542   6.977   3.252   6.395 -2.1848 -3.0587  0.4179
   29EMI    H1'  543   7.092   3.132   6.338 -0.7506  3.6040 -2.7634
   29EMI    H1'  544   7.076   3.298   6.272 -0.2021  0.2265  3.3755
   29EMI    C1"  545   6.740   2.946   5.975  0.1816 -0.7666 -1.0041
   29EMI    H1"  546   6.712   2.997   5.879  1.5001 -0.1995  3.0538
   29EMI    H1"  547   6.657   2.903   6.028  1.8295  1.0366 -0.2626
   29EMI    C2"  548   6.840   2.840   5.970 -0.0483  0.5068 -0.3652
   29EMI    H2"  549   6.936   2.886   5.970  0.1042 -1.7575  1.3837
   29EMI    H2"  550   6.824   2.778   6.063  0.4715  1.2081 -0.6274
   29EMI    H2"  551   6.839   2.774   5.888 -0.2958  3.6268  0.3467
   30EMI     N1  552   5.853   4.955   6.284 -0.3454 -0.2031 -0.0243
   30EMI     C2  553   5.962   5.043   6.268 -0.2477  0.2258 -0.1688
   30EMI     N3  554   5.942   5.137   6.365  0.4482 -0.6445  0.2574
   30EMI     C4  555   5.820   5.115   6.428 -0.2432  0.3942  0.8005
   30EMI     C5  556   5.772   4.998   6.384 -0.0309 -0.0106 -0.0310
   30EMI     H2  557   6.051   5.032   6.211  1.9352 -1.3531  1.0933
   30EMI     H4  558   5.759   5.174   6.488 -0.6718 -0.3585 -1.7381
   30EMI     H5  559   5.677   4.946   6.404  0.0490  1.8076  1.4441
   30EMI    C1'  560   6.023   5.259   6.400 -0.1925  0.1500  0.3944
   30EMI    H1'  561   6.056   5.270   6.503  3.1952 -0.7455  0.6801
   30EMI    H1'  562   6.109   5.268   6.326  1.2544  0.1465  1.4223
   30EMI    H1'  563   5.952   5.343   6.381  1.5293  0.0198  1.1150
   30EMI    C1"  564   5.817   4.833   6.200 -0.2144 -0.5749  0.5230
   30EMI    H1"  565   5.829   4.748   6.262  0.6898  0.8957 -2.8991
   30EMI    H1"  566   5.898   4.827   6.128 -0.6543 -1.5203  2.8481
   30EMI    C2"  567   5.682   4.851   6.130 -0.0507  0.2388  0.1708
   30EMI    H2"  568   5.689   4.955   6.087  2.5482  2.1712  2.0422
   30EMI    H2"  569   5.678   4.774   6.050  2.7919  0.1918  0.3071
   30EMI    H2"  570   5.601   4.848   6.205  0.4676  0.4363  1.2749
   31EMI     N1  571   1.013   4.074   5.537  0.4886  0.4220 -0.4867
   31EMI     C2  572   0.951   4.189   5.557  1.4377 -0.3137  0.1854
   31EMI     N3  573   1.040   4.287   5.560  0.3379  0.1878 -0.0708
   31EMI     C4  574   1.166   4.228   5.545  0.5079  0.0247 -0.2871
   31EMI     C5  575   1.150   4.092   5.534  0.5210  0.0839  0.1844
   31EMI     H2  576   0.844   4.210   5.553  0.7596  1.8641  0.9731
   31EMI     H4  577   1.256   4.287   5.541  1.9158 -1.3272 -1.0171
   31EMI     H5  578   1.225   4.012   5.532  1.3495 -3.9955  1.0730
   31EMI    C1'  579   1.025   4.430   5.553  0.2108  0.2701  0.5545
   31EMI    H1'  580   1.093   4.473   5.633 -2.3019 -0.1225 -0.2040
   31EMI    H1'  581   1.049   4.467   5.456 -1.9072  0.7679  1.2553
   31EMI    H1'  582   0.920   4.457   5.560  0.9424  1.1625 -1.9711
   31EMI    C1"  583   0.949   3.940   5.528 -0.6181 -0.0807 -0.0487
   31EMI    H1"  584   0.874   3.934   5.602  0.9947 -0.7289 -0.2347
   31EMI    H1"  585   1.022   3.862   5.542  0.2438 -1.4399 -2.2563
   31EMI    C2"  586   0.886   3.942   5.391 -0.0636  0.4753 -0.8237
   31EMI    H2"  587   0.821   3.858   5.375 -1.4754 -0.8993 -1.0831
   31EMI    H2"  588   0.832   4.036   5.362 -0.3897  0.0870 -1.2001
   31EMI    H2"  589   0.963   3.944   5.317 -2.5604  0.5176  0.1058
   32EMI     N1  590   2.591   5.605   5.832 -0.1897  0.4131 -1.3486
   32EMI     C2  591   2.623   5.530   5.722  0.0199  0.1855  0.0416
   32EMI     N3  592   2.646   5.616   5.621  0.0234  0.0830  0.2019
   32EMI     C4  593   2.624   5.743   5.671 -0.5819 -0.3057 -0.2822
   32EMI     C5  594   2.600   5.737   5.802 -0.0883 -0.3212  0.3272
   32EMI     H2  595   2.617   5.426   5.714  0.8764  1.8811 -2.6204
   32EMI     H4  596   2.635   5.829   5.609 -2.0332 -0.8433  0.9156
   32EMI     H5  597   2.587   5.821   5.869 -0.4452 -0.1679  1.3059
   32EMI    C1'  598   2.666   5.593   5.472  0.0620  0.3060  0.2333
   32EMI    H1'  599   2.586   5.638   5.412 -1.0094 -0.5049  0.5432
   32EMI    H1'  600   2.759   5.644   5.450  0.7012  1.6505 -2.0580
   32EMI    H1'  601   2.678   5.492   5.449  0.1936  1.9921  1.0538
   32EMI    C1"  602   2.552   5.561   5.966 -0.0895  0.5032 -0.1274
   32EMI    H1"  603   2.475   5.633   5.992 -0.0820 -0.6364  0.1491
   32EMI    H1"  604   2.641   5.562   6.033 -0.7610  2.0347  2.3662
   32EMI    C2"  605   2.474   5.433   5.977  0.2032  0.7252 -0.0772
   32EMI    H2"  606   2.546   5.350   5.985 -0.4878  0.1450  1.4767
   32EMI    H2"  607   2.408   5.439   6.068 -0.0573 -1.9357 -2.5056
   32EMI    H2"  608   2.402   5.425   5.890  0.4337  4.1713 -2.2381
   33EMI     N1  609   0.614   2.169   3.990  0.0378 -0.2545  0.1203
   33EMI     C2  610   0.654   2.225   3.881  0.1159  0.4878  0.4416
   33EMI     N3  611   0.775   2.283   3.896  0.2741  0.3895  0.3153
   33EMI     C4  612   0.812   2.258   4.027 -0.4222  0.1912 -0.3230
   33EMI     C5  613   0.712   2.186   4.089 -0.6949 -0.5215 -0.6739
   33EMI     H2  614   0.612   2.225   3.782  0.1954 -0.2725 -0.3911
   33EMI     H4  615   0.907   2.296   4.067 -0.4470  0.1782 -0.9257
   33EMI     H5  616   0.705   2.151   4.191 -1.4801 -1.2498 -3.3179
   33EMI    C1'  617   0.871   2.333   3.791 -0.2718  0.3653 -0.0711
   33EMI    H1'  618   0.951   2.392   3.829  0.9421 -0.2580 -1.1814
   33EMI    H1'  619   0.916   2.245   3.753 -0.6370  0.7030 -2.4745
   33EMI    H1'  620   0.824   2.396   3.709  0.6018 -0.5592 -0.7190
   33EMI    C1"  621   0.492   2.087   4.024 -0.5263  0.6995  0.8672
   33EMI    H1"  622   0.453   2.133   4.111  2.2418  0.2924  0.0795
   33EMI    H1"  623   0.526   1.985   4.051 -1.0435 -0.8274  1.0821
   33EMI    C2"  624   0.391   2.058   3.908 -0.6916  0.0305  0.7756
   33EMI    H2"  625   0.443   2.016   3.825  0.3814 -0.4539 -1.2290
   33EMI    H2"  626   0.320   1.988   3.936  3.0688 -1.5153  0.0384
   33EMI    H2"  627   0.349   2.154   3.872  0.2316  0.8075  1.4379
   34EMI     N1  628   2.648   3.935   2.483 -0.0286  0.0241 -0.0676
   34EMI     C2  629   2.646   3.883   2.357  0.1990  0.5920 -0.2454
   34EMI     N3  630   2.747   3.936   2.286  0.3230 -0.4205  0.3889
   34EMI     C4  631   2.813   4.025   2.366 -0.2465 -0.4037  0.0319
   34EMI     C5  632   2.749   4.026   2.487 -0.5047  0.2777  0.0520
   34EMI     H2  633   2.565   3.818   2.321  0.3280  0.2622 -0.2346
   34EMI     H4  634   2.908   4.066   2.340 -0.5551  0.0761 -0.1497
   34EMI     H5  635   2.774   4.088   2.573  1.4185  0.1262  0.3479
   34EMI    C1'  636   2.792   3.924   2.145 -0.0189  0.3918 -0.3796
   34EMI    H1'  637   2.900   3.903   2.144 -0.8345 -1.8122  1.6035
   34EMI    H1'  638   2.743   3.838   2.093 -0.2316  0.8122 -1.1920
   34EMI    H1'  639   2.770   4.014   2.092 -0.1312  2.5611  2.4216
   34EMI    C1"  640   2.561   3.921   2.601  0.2559 -1.1876  0.8447
   34EMI    H1"  641   2.578   4.002   2.664  0.4855 -0.6151  1.9883
   34EMI    H1"  642   2.585   3.821   2.645 -1.3466 -1.0043  0.0133
   34EMI    C2"  643   2.413   3.913   2.568  0.3780 -0.8319  0.8403
   34EMI    H2"  644   2.378   3.992   2.508 -1.8476 -0.2687  1.6994
   34EMI    H2"  645   2.382   3.824   2.513 -0.3106 -1.7569  0.3986
   34EMI    H2"  646   2.347   3.907   2.653  1.3390  1.9156 -1.5140
   35EMI     N1  647   4.675   2.214   5.407  0.8298 -0.0425  0.5881
   35EMI     C2  648   4.674   2.305   5.307  0.1123 -0.1478  0.3450
   35EMI     N3  649   4.547   2.307   5.249 -0.5460  1.0645  0.3064
   35EMI     C4  650   4.476   2.213   5.325 -0.2541 -0.0991 -0.8654
   35EMI     C5  651   4.554   2.155   5.421 -0.4146 -0.1476  0.3129
   35EMI     H2  652   4.761   2.352   5.270 -1.8379 -1.3213 -0.5020
   35EMI     H4  653   4.373   2.178   5.309  0.8947 -0.7135  0.5436
   35EMI     H5  654   4.527   2.079   5.503  0.3056 -2.6318 -0.9691
   35EMI    C1'  655   4.488   2.382   5.137 -0.3752 -0.2147  0.4433
   35EMI    H1'  656   4.491   2.320   5.052 -0.8365  0.7069 -0.0136
   35EMI    H1'  657   4.378   2.407   5.152  1.0760  0.9003 -1.4889
   35EMI    H1'  658   4.541   2.478   5.114 -0.8151  0.3216 -0.7179
   35EMI    C1"  659   4.781   2.182   5.509 -0.4485 -0.1532  0.2072
   35EMI    H1"  660   4.797   2.073   5.511  0.6027 -1.8688 -1.0913
   35EMI    H1"  661   4.743   2.230   5.598  0.0125  0.7659  2.5610
   35EMI    C2"  662   4.917   2.252   5.476 -0.3448  0.4592 -0.5694
   35EMI    H2"  663   4.974   2.181   5.406 -1.3878 -0.9402 -1.8872
   35EMI    H2"  664   4.900   2.349   5.434  1.4297  0.9955  1.5653
   35EMI    H2"  665   4.976   2.267   5.572  2.4978  2.7167  0.4319
   36EMI     N1  666   0.989   4.876   2.989  0.1388 -0.0116  0.3782
   36EMI     C2  667   0.871   4.813   2.971 -0.5403  0.6148 -0.4863
   36EMI     N3  668   0.790   4.840   3.068  0.5162 -0.1000 -0.4455
   36EMI     C4  669   0.850   4.933   3.152  0.0495  0.3517  0.1024
   36EMI     C5  670   0.979   4.948   3.107  0.0969  0.2489  0.2640
   36EMI     H2  671   0.865   4.744   2.886  2.6971  0.5491 -0.6779
   36EMI     H4  672   0.804   4.965   3.244  0.2426  0.1726  0.0326
   36EMI     H5  673   1.055   5.004   3.163  1.3274  0.6247  1.6656
   36EMI    C1'  674   0.651   4.797   3.111 -0.1399 -0.1867 -0.4783
   36EMI    H1'  675   0.624   4.825   3.212  1.1041  0.8274 -1.0359
   36EMI    H1'  676   0.575   4.846   3.044 -0.6276 -2.7948 -1.4360
   36EMI    H1'  677   0.644   4.693   3.107 -0.4268  1.1164  0.6614
   36EMI    C1"  678   1.120   4.848   2.930  0.5507  0.0174  0.0158
   36EMI    H1"  679   1.149   4.750   2.971 -1.6344 -1.3175 -0.1364
   36EMI    H1"  680   1.186   4.927   2.958 -2.1010 -1.7948 -1.8290
   36EMI    C2"  681   1.130   4.835   2.774  0.0577  0.0932 -0.1895
   36EMI    H2"  682   1.135   4.933   2.727 -0.4374  0.6796 -0.3235
   36EMI    H2"  683   1.226   4.771   2.754  2.0137 -2.6458 -0.9395
   36EMI    H2"  684   1.039   4.780   2.735  2.7578 -3.0014 -0.2974
   37EMI     N1  685   0.741   5.267   0.722  0.6862 -0.6723 -0.0081
   37EMI     C2  686   0.673   5.185   0.643 -0.0336 -0.2320  0.0025
   37EMI     N3  687   0.740   5.163   0.527 -0.6163 -0.5499  0.5598
   37EMI     C4  688   0.857   5.236   0.539 -0.3142 -0.3805 -0.8688
   37EMI     C5  689   0.858   5.293   0.656 -1.0405  0.3907  0.3017
   37EMI     H2  690   0.577   5.142   0.660  0.5129 -3.4653  0.4881
   37EMI     H4  691   0.927   5.243   0.458  0.3265  0.7138 -0.0175
   37EMI     H5  692   0.932   5.354   0.697 -1.4736  1.0801 -0.0876
   37EMI    C1'  693   0.710   5.083   0.412  1.0655  0.0905 -0.1789
   37EMI    H1'  694   0.628   5.135   0.357 -1.5087  1.5119  0.3059
   37EMI    H1'  695   0.792   5.075   0.339  0.6529 -2.5530 -1.4560
   37EMI    H1'  696   0.668   4.987   0.448  1.2526 -1.5922 -0.9638
   37EMI    C1"  697   0.693   5.330   0.850 -0.2643 -0.5038 -0.1654
   37EMI    H1"  698   0.618   5.397   0.816 -1.0650  1.2263 -1.2362
   37EMI    H1"  699   0.786   5.387   0.890  3.2036 -0.5024  1.4417
   37EMI    C2"  700   0.621   5.240   0.950  0.5439 -0.6712  0.1666
   37EMI    H2"  701   0.687   5.165   0.986 -0.2325  4.0387  2.8223
   37EMI    H2"  702   0.575   5.287   1.036 -0.4599 -0.9860 -1.7859
   37EMI    H2"  703   0.542   5.190   0.893 -0.5611 -0.7908 -1.2932
   38EMI     N1  704   0.251   1.640   4.274 -0.1410  0.1889  0.7451
   38EMI     C2  705   0.256   1.675   4.402 -0.6841  0.0540  0.0236
   38EMI     N3  706   0.209   1.574   4.476 -0.2191  0.2734 -0.4784
   38EMI     C4  707   0.188   1.468   4.396  0.2582  0.3834  0.4624
   38EMI     C5  708   0.209   1.510   4.265 -0.3135  0.0197  0.1126
   38EMI     H2  709   0.271   1.769   4.450  1.5084 -2.2878  0.7090
   38EMI     H4  710   0.154   1.363   4.420  2.2095 -1.6447 -1.2972
   38EMI     H5  711   0.200   1.449   4.177 -0.5248  0.0524 -0.2002
   38EMI    C1'  712   0.205   1.553   4.621  0.0772 -0.7056  0.0461
   38EMI    H1'  713   0.229   1.649   4.672  1.9179 -0.4835 -1.3642
   38EMI    H1'  714   0.110   1.521   4.658  1.3178 -2.3303  2.1640
   38EMI    H1'  715   0.282   1.477   4.633 -0.9732  1.6941 -1.8803
   38EMI    C1"  716   0.281   1.719   4.149  0.0171  0.6063 -0.2327
   38EMI    H1"  717   0.314   1.812   4.182  2.9190  2.1602 -2.9886
   38EMI    H1"  718   0.190   1.736   4.087 -0.7960  2.8938  1.5450
   38EMI    C2"  719   0.393   1.659   4.060  0.0398 -0.2625  0.4676
   38EMI    H2"  720   0.372   1.556   4.032  2.9163  1.3153  1.0282
   38EMI    H2"  721   0.380   1.723   3.967  2.1431  1.9468 -3.7473
   38EMI    H2"  722   0.494   1.665   4.106 -1.1200  0.6190  3.3312
   39EMI     N1  723   5.541   3.162   2.619 -0.4238 -0.5861 -0.2010
   39EMI     C2  724   5.457   3.254   2.570  1.4256  0.7282  1.0302
   39EMI     N3  725   5.470   3.361   2.640  0.3040 -0.1807  0.1007
   39EMI     C4  726   5.564   3.344   2.741  0.2246 -0.6848  0.1616
   39EMI     C5  727   5.607   3.216   2.727  0.0892  0.3770  0.5032
   39EMI     H2  728   5.408   3.249   2.474 -1.0877  1.9386 -1.5921
   39EMI     H4  729   5.595   3.417   2.817 -0.3991  1.9139  3.1894
   39EMI     H5  730   5.686   3.172   2.790 -1.4670  4.0922  0.2216
   39EMI    C1'  731   5.403   3.484   2.620  0.4017  0.0239 -0.0933
   39EMI    H1'  732   5.339   3.508   2.707  0.9005  1.1730 -1.1692
   39EMI    H1'  733   5.477   3.565   2.616 -1.3214 -0.0961 -0.4937
   39EMI    H1'  734   5.342   3.471   2.529 -0.5431 -2.6385  2.4824
   39EMI    C1"  735   5.585   3.037   2.561 -0.0119  0.1923  0.1028
   39EMI    H1"  736   5.686   3.020   2.592 -0.0520  0.4116  0.0824
   39EMI    H1"  737   5.578   3.042   2.449 -0.4295 -2.9417  1.5970
   39EMI    C2"  738   5.484   2.924   2.596 -0.3848 -0.0998 -0.3000
   39EMI    H2"  739   5.393   2.941   2.543  1.1645  0.0324 -1.9064
   39EMI    H2"  740   5.521   2.825   2.568  0.6887 -1.0542 -0.4613
   39EMI    H2"  741   5.475   2.919   2.703  0.0827  2.8367 -0.1081
   40EMI     N1  742   1.820   1.738   2.534  0.1001  1.0077  0.4987
   40EMI     C2  743   1.752   1.682   2.427 -0.4484  1.0161 -0.0923
   40EMI     N3  744   1.716   1.773   2.334 -0.0966  0.1668 -0.6677
   40EMI     C4  745   1.752   1.890   2.398  0.1362  0.1243  0.0566
   40EMI     C5  746   1.825   1.873   2.508 -0.2547  0.6242  0.1321
   40EMI     H2  747   1.721   1.579   2.414 -0.4619  0.9091  0.1862
   40EMI     H4  748   1.713   1.969   2.345 -0.4017 -0.5943 -0.4575
   40EMI     H5  749   1.865   1.951   2.579 -2.9951 -0.2168  1.6779
   40EMI    C1'  750   1.643   1.763   2.209 -0.1872 -0.3301  0.3685
   40EMI    H1'  751   1.639   1.663   2.181 -0.5868 -0.5243  0.4107
   40EMI    H1'  752   1.538   1.800   2.222 -2.5342 -1.4141 -2.1513
   40EMI    H1'  753   1.699   1.823   2.141  1.5212  0.4184  1.5546
   40EMI    C1"  754   1.863   1.666   2.660  0.1184  0.1855 -0.4352
   40EMI    H1"  755   1.785   1.599   2.684  0.4945 -1.0176 -2.4166
   40EMI    H1"  756   1.884   1.741   2.736  2.3614 -2.2637 -0.7445
   40EMI    C2"  757   1.995   1.588   2.641  0.0700  0.0228  0.0034
   40EMI    H2"  758   1.994   1.519   2.559  0.7262  1.1910 -1.1258
   40EMI    H2"  759   2.065   1.664   2.613 -0.6189 -2.2869 -2.9703
   40EMI    H2"  760   2.014   1.547   2.739  0.5439  0.2578  1.8448
   41EMI     N1  761   0.796   1.637   5.930 -0.1013  0.0978  0.1539
   41EMI     C2  762   0.731   1.618   6.044  0.5658 -0.2529 -0.0809
   41EMI     N3  763   0.753   1.722   6.127 -0.2427 -0.0071  0.0370
   41EMI     C4  764   0.825   1.815   6.057 -0.0991 -0.2321 -0.1125
   41EMI     C5  765   0.852   1.759   5.937 -0.7930  0.4568  0.5570
   41EMI     H2  766   0.688   1.521   6.063  2.4742  0.2731  0.3949
   41EMI     H4  767   0.854   1.912   6.091 -0.1593  0.4683 -2.2406
   41EMI     H5  768   0.923   1.797   5.866  0.5016 -0.2564  2.9157
   41EMI    C1'  769   0.743   1.735   6.269 -0.1240 -0.6370  0.3275
   41EMI    H1'  770   0.833   1.719   6.330  0.8900  0.1508 -2.0935
   41EMI    H1'  771   0.703   1.834   6.291 -1.2350 -1.1273  2.8199
   41EMI    H1'  772   0.671   1.668   6.307 -1.7036 -1.3786 -1.7552
   41EMI    C1"  773   0.806   1.543   5.818  0.2427 -0.0355 -0.0288
   41EMI    H1"  774   0.828   1.442   5.860  0.7120 -0.3938 -1.8578
   41EMI    H1"  775   0.891   1.565   5.762  0.1845  1.0224  0.2188
   41EMI    C2"  776   0.677   1.544   5.741  0.6987  0.1286 -0.1766
   41EMI    H2"  777   0.688   1.636   5.671 -0.4334  2.3635  0.2619
   41EMI    H2"  778   0.669   1.456   5.679 -3.6904  0.9234  1.8457
   41EMI    H2"  779   0.592   1.534   5.812  0.7034 -2.5647 -1.9792
   42EMI     N1  780   6.143   0.501   5.126  0.1550 -0.3961 -0.6509
   42EMI     C2  781   6.067   0.599   5.185  0.2883  0.9432  0.2567
   42EMI     N3  782   5.940   0.590   5.141 -0.0431 -0.7408  0.1488
   42EMI     C4  783   5.940   0.478   5.066  0.6084 -0.0801 -0.3883
   42EMI     C5  784   6.060   0.410   5.064  0.7171 -0.3482  0.2162
   42EMI     H2  785   6.110   0.677   5.254  1.2750  1.6572  0.7336
   42EMI     H4  786   5.853   0.435   5.014  1.8479  2.0584 -3.5270
   42EMI     H5  787   6.090   0.316   5.015  2.2988 -3.4888 -0.0964
   42EMI    C1'  788   5.824   0.679   5.154 -0.0383 -0.3162 -0.2909
   42EMI    H1'  789   5.796   0.699   5.053 -0.2506  0.0568  1.5447
   42EMI    H1'  790   5.747   0.627   5.206  0.9789 -0.1217 -2.5320
   42EMI    H1'  791   5.833   0.774   5.206 -0.3572 -0.5797 -0.5630
   42EMI    C1"  792   6.289   0.481   5.127 -0.0542 -0.6558  0.1169
   42EMI    H1"  793   6.319   0.379   5.153  0.2336  0.9276  3.7063
   42EMI    H1"  794   6.320   0.559   5.197  1.6914  1.6908 -0.2893
   42EMI    C2"  795   6.357   0.527   4.994  0.6003 -0.4317 -0.1052
   42EMI    H2"  796   6.327   0.631   4.968 -0.1063  1.0204  1.1138
   42EMI    H2"  797   6.467   0.531   5.016 -0.6148 -0.6723 -1.3848
   42EMI    H2"  798   6.334   0.458   4.908 -0.0267  1.0383  0.7267
   43EMI     N1  799   0.327   2.157   1.065 -0.0130  0.1078 -0.0419
   43EMI     C2  800   0.321   2.041   1.123 -0.2159  0.1750 -0.5220
   43EMI     N3  801   0.250   1.949   1.040  0.1309 -0.7126 -0.1860
   43EMI     C4  802   0.204   2.020   0.930 -0.5922 -0.0768  0.9686
   43EMI     C5  803   0.254   2.147   0.944 -0.5780 -0.7699  0.5073
   43EMI     H2  804   0.370   2.019   1.220 -1.8998 -0.2754  0.9212
   43EMI     H4  805   0.146   1.981   0.842  0.5162 -0.9823 -1.0828
   43EMI     H5  806   0.233   2.224   0.875 -0.5278  3.0349  0.9354
   43EMI    C1'  807   0.228   1.811   1.049 -1.0937 -0.1227 -0.3583
   43EMI    H1'  808   0.237   1.766   0.945 -0.7801  0.2297  0.9732
   43EMI    H1'  809   0.305   1.765   1.111 -0.2544  1.1815 -0.0885
   43EMI    H1'  810   0.128   1.797   1.088 -1.1800  0.8230  0.7163
   43EMI    C1"  811   0.397   2.288   1.106 -0.7985  0.2056 -0.5950
   43EMI    H1"  812   0.338   2.378   1.125  0.7784 -0.4023 -1.9651
   43EMI    H1"  813   0.458   2.319   1.023 -1.3050 -1.4825  0.2610
   43EMI    C2"  814   0.483   2.261   1.230  0.0686 -0.1227 -0.6047
   43EMI    H2"  815   0.570   2.205   1.200 -1.2474  0.4300 -0.9162
   43EMI    H2"  816   0.543   2.348   1.257  1.6415 -2.1975 -2.4871
   43EMI    H2"  817   0.430   2.224   1.317  2.9833 -0.8840  1.0324
   44EMI     N1  818   3.758   2.699   0.251 -0.5686  0.4258 -0.2050
   44EMI     C2  819   3.727   2.633   0.360 -0.7581  0.7595  0.0156
   44EMI     N3  820   3.725   2.500   0.333  0.5732  0.3512  0.0791
   44EMI     C4  821   3.766   2.486   0.202  0.1458 -0.6903 -0.2544
   44EMI     C5  822   3.790   2.609   0.156 -0.2620 -0.4916 -0.2605
   44EMI     H2  823   3.687   2.672   0.450  1.0499 -0.7928 -0.6940
   44EMI     H4  824   3.772   2.396   0.150 -0.4983 -1.0845  0.4001
   44EMI     H5  825   3.827   2.634   0.061 -0.2034 -1.4215 -0.8247
   44EMI    C1'  826   3.695   2.381   0.415  0.0831  0.1701 -0.2130
   44EMI    H1'  827   3.779   2.347   0.469 -2.9349  1.8721  1.0269
   44EMI    H1'  828   3.632   2.413   0.497  1.3636 -4.7272 -1.6989
   44EMI    H1'  829   3.639   2.299   0.366  1.1368 -2.2025 -1.0940
   44EMI    C1"  830   3.770   2.850   0.230  0.9087  0.1176  0.3085
   44EMI    H1"  831   3.673   2.901   0.210 -0.5683 -2.1803  1.1442
   44EMI    H1"  832   3.833   2.854   0.138  1.0219  0.0254 -3.0835
   44EMI    C2"  833   3.835   2.919   0.346  0.2337  0.1552 -0.8556
   44EMI    H2"  834   3.926   2.863   0.376  1.3647  0.7170  0.3117
   44EMI    H2"  835   3.866   3.019   0.321 -0.4626 -1.7576  1.4801
   44EMI    H2"  836   3.772   2.931   0.442 -2.5161  3.0362  2.3396
   45EMI     N1  837   2.272   0.662   0.593  0.5474  0.3281  0.5430
   45EMI     C2  838   2.214   0.562   0.662  0.2711 -0.6920 -0.9063
   45EMI     N3  839   2.104   0.519   0.599  0.1641 -0.1041  0.4766
   45EMI     C4  840   2.082   0.600   0.491 -0.4960  0.1630 -0.4216
   45EMI     C5  841   2.190   0.686   0.484 -0.1173 -0.1327 -0.0378
   45EMI     H2  842   2.257   0.518   0.753 -2.1503 -2.4022  1.0130
   45EMI     H4  843   2.003   0.597   0.417  0.4201 -2.1288  0.2361
   45EMI     H5  844   2.205   0.769   0.415 -2.4737  0.0334  1.5179
   45EMI    C1'  845   2.015   0.408   0.626 -0.6921  0.2245  0.3674
   45EMI    H1'  846   1.952   0.441   0.704 -1.7134 -2.3974 -1.0664
   45EMI    H1'  847   1.956   0.395   0.534  2.1622  1.7338 -0.8257
   45EMI    H1'  848   2.067   0.312   0.658  0.6835  1.6041  3.3632
   45EMI    C1"  849   2.396   0.734   0.626 -0.1231 -0.0266 -0.5719
   45EMI    H1"  850   2.456   0.670   0.693  0.2664 -1.6076 -0.5976
   45EMI    H1"  851   2.363   0.829   0.676  1.0551  0.0696  1.2689
   45EMI    C2"  852   2.478   0.761   0.500  0.5086  0.4244 -0.1732
   45EMI    H2"  853   2.561   0.824   0.522 -0.2869 -1.5774  0.3764
   45EMI    H2"  854   2.519   0.677   0.457  1.7819  0.9536  0.4365
   45EMI    H2"  855   2.408   0.809   0.430 -1.2603  2.1061  1.3796
   46EMI     N1  856   5.167   5.407   4.326  0.3640  0.7008  0.3832
   46EMI     C2  857   5.050   5.341   4.342  0.0105  0.1445  0.2280
   46EMI     N3  858   5.058   5.212   4.293  0.2352 -0.2118 -0.2542
   46EMI     C4  859   5.184   5.194   4.251 -0.0544  0.0863 -0.4722
   46EMI     C5  860   5.254   5.311   4.273 -0.6205  0.1261 -0.0718
   46EMI     H2  861   4.956   5.369   4.395 -1.1672  0.0745 -0.5018
   46EMI     H4  862   5.236   5.105   4.226 -2.7470  1.0463 -2.1171
   46EMI     H5  863   5.356   5.326   4.263 -1.2219 -1.8504 -0.0777
   46EMI    C1'  864   4.959   5.103   4.303  0.4348 -0.0966 -0.1429
   46EMI    H1'  865   4.938   5.075   4.403 -1.6440  1.8768 -0.5911
   46EMI    H1'  866   4.867   5.131   4.246  0.0204 -0.0474 -0.3701
   46EMI    H1'  867   4.998   5.013   4.246  2.9729 -2.3952 -2.1248
   46EMI    C1"  868   5.211   5.546   4.349  0.5920 -0.3318  0.0247
   46EMI    H1"  869   5.134   5.622   4.328  0.8005  2.8396 -1.8432
   46EMI    H1"  870   5.303   5.574   4.286  1.4409  1.8053  0.3168
   46EMI    C2"  871   5.238   5.562   4.497 -0.1484  0.4215 -0.0952
   46EMI    H2"  872   5.142   5.518   4.552  1.3927  1.6625 -0.8065
   46EMI    H2"  873   5.335   5.512   4.508 -2.4493  0.4949 -0.2054
   46EMI    H2"  874   5.250   5.666   4.523  0.1578 -0.1660 -0.8055
   47EMI     N1  875   6.792   4.601   4.320  0.4151 -0.8056  0.3013
   47EMI     C2  876   6.915   4.590   4.373  0.2477  0.4322 -0.7858
   47EMI     N3  877   7.000   4.679   4.328  0.6682 -0.0240  0.4169
   47EMI     C4  878   6.928   4.746   4.236 -0.0424 -0.6243  0.0852
   47EMI     C5  879   6.801   4.704   4.228 -0.2536  0.2353 -0.3434
   47EMI     H2  880   6.940   4.541   4.462  0.5643  0.0211 -0.9478
   47EMI     H4  881   6.970   4.828   4.179  1.0276  2.2165 -0.2973
   47EMI     H5  882   6.716   4.740   4.172  0.1848 -2.0950 -3.1976
   47EMI    C1'  883   7.130   4.716   4.369  0.9486 -0.2545 -0.2250
   47EMI    H1'  884   7.139   4.697   4.478  1.8013 -0.5377 -1.3469
   47EMI    H1'  885   7.204   4.653   4.312  5.4067 -0.5279 -0.8193
   47EMI    H1'  886   7.140   4.820   4.352  1.0697  0.5362  4.9401
   47EMI    C1"  887   6.666   4.526   4.337 -0.1063  0.1156 -0.8309
   47EMI    H1"  888   6.694   4.422   4.322 -0.0479  0.4763 -0.0535
   47EMI    H1"  889   6.593   4.544   4.258  1.0283 -1.3986 -0.7551
   47EMI    C2"  890   6.610   4.553   4.474  0.4597 -0.4715  0.1139
   47EMI    H2"  891   6.545   4.474   4.504  1.9129 -2.9306 -1.3514
   47EMI    H2"  892   6.692   4.556   4.551  0.1412 -2.2021  0.6552
   47EMI    H2"  893   6.559   4.654   4.472  1.8583  1.4912  0.4286
   48EMI     N1  894   0.379   3.735   5.373 -0.3864 -0.4206 -0.1928
   48EMI     C2  895   0.319   3.817   5.287 -0.7196 -0.8868  0.5809
   48EMI     N3  896   0.399   3.920   5.273 -0.4532 -0.2083  0.9242
   48EMI     C4  897   0.511   3.905   5.358  0.3411  0.1177 -0.1330
   48EMI     C5  898   0.493   3.790   5.426  0.2440 -0.4109  0.0473
   48EMI     H2  899   0.231   3.800   5.230  1.7306  1.3875  0.2066
   48EMI     H4  900   0.584   3.981   5.378  0.9861 -0.2209 -1.1461
   48EMI     H5  901   0.570   3.754   5.491 -1.8485  1.8593 -2.2542
   48EMI    C1'  902   0.371   4.057   5.217  0.0070 -0.0143  0.3535
   48EMI    H1'  903   0.313   4.121   5.285 -1.7356  2.1726 -0.7691
   48EMI    H1'  904   0.470   4.103   5.199 -1.4951  3.5400  0.5055
   48EMI    H1'  905   0.322   4.055   5.126 -0.5516 -0.8460  3.5571
   48EMI    C1"  906   0.344   3.595   5.415 -0.0871  0.1632 -0.6761
   48EMI    H1"  907   0.238   3.594   5.455 -0.9580 -0.6888  0.7014
   48EMI    H1"  908   0.411   3.582   5.496 -4.6298  0.6906  1.2020
   48EMI    C2"  909   0.363   3.495   5.302  0.5928 -0.3858 -0.4785
   48EMI    H2"  910   0.313   3.398   5.315 -2.3169  1.8220  1.7435
   48EMI    H2"  911   0.308   3.539   5.223 -0.9738  1.8090  2.3601
   48EMI    H2"  912   0.468   3.482   5.292 -0.9448 -0.6623 -1.7550
   49EMI     N1  913   6.168   0.339   6.303  0.4805 -0.7200  0.0720
   49EMI     C2  914   6.104   0.251   6.379 -0.3826  0.2099  0.4479
   49EMI     N3  915   6.058   0.302   6.492  0.0663  0.0260  0.3935
   49EMI     C4  916   6.092   0.435   6.492 -0.5687 -0.2348 -0.6668
   49EMI     C5  917   6.161   0.461   6.376 -0.4249 -0.1236 -0.1071
   49EMI     H2  918   6.101   0.142   6.375  1.8938 -1.3699  0.5370
   49EMI     H4  919   6.071   0.503   6.571  0.5742 -0.7907 -2.0515
   49EMI     H5  920   6.208   0.557   6.353  2.4358  1.1494  2.8022
   49EMI    C1'  921   6.008   0.228   6.608 -0.0036  0.8474 -1.0455
   49EMI    H1'  922   6.091   0.186   6.655  0.8230  1.8130 -0.4552
   49EMI    H1'  923   5.964   0.304   6.671  3.6155 -0.5898  1.1617
   49EMI    H1'  924   5.938   0.151   6.587 -0.9551  1.2504  0.5480
   49EMI    C1"  925   6.225   0.323   6.168  0.2706 -0.7067  0.4005
   49EMI    H1"  926   6.319   0.266   6.160  1.3798  0.6675  1.3628
   49EMI    H1"  927   6.253   0.420   6.130 -0.1005 -2.9973  2.4859
   49EMI    C2"  928   6.125   0.260   6.071 -0.6774 -0.4203  0.0960
   49EMI    H2"  929   6.048   0.339   6.056  0.9873  0.7981  1.0724
   49EMI    H2"  930   6.165   0.225   5.973  0.3220 -0.0613  1.9491
   49EMI    H2"  931   6.079   0.168   6.101 -3.0255  0.0737  0.6396
   50EMI     N1  932   5.072   5.321   2.067  0.7488  0.0198 -0.7863
   50EMI     C2  933   5.022   5.446   2.084  0.6535 -0.1075  0.0122
   50EMI     N3  934   5.049   5.490   2.206  0.4618  0.2462 -0.4352
   50EMI     C4  935   5.116   5.389   2.266  0.4238 -0.2631  0.1614
   50EMI     C5  936   5.144   5.290   2.179  0.2866 -0.3888 -0.2989
   50EMI     H2  937   4.957   5.511   2.018 -0.2784  2.1120  0.3848
   50EMI     H4  938   5.152   5.399   2.366  1.8908 -1.7317 -0.9306
   50EMI     H5  939   5.208   5.206   2.174  0.8531  0.3706 -0.1074
   50EMI    C1'  940   5.001   5.618   2.270  0.3843 -0.3302  0.8447
   50EMI    H1'  941   4.899   5.643   2.240  1.5569  0.0223 -1.1702
   50EMI    H1'  942   4.996   5.625   2.379  4.2224  0.9488  4.1137
   50EMI    H1'  943   5.075   5.691   2.237 -1.5038  1.0918  0.3393
   50EMI    C1"  944   5.069   5.241   1.945 -0.0503 -0.0050 -0.2724
   50EMI    H1"  945   5.064   5.142   1.983 -0.3326  3.0966 -0.6543
   50EMI    H1"  946   5.162   5.246   1.886  2.1149  0.0544 -1.4491
   50EMI    C2"  947   4.953   5.263   1.851 -0.0935  0.4438  0.3893
   50EMI    H2"  948   4.867   5.255   1.914  1.7588  0.6426  1.4852
   50EMI    H2"  949   4.950   5.374   1.825  1.3476  1.6197 -0.8845
   50EMI    H2"  950   4.946   5.194   1.770 -2.2355 -1.4419 -0.6270
   51EMI     N1  951   6.585   3.972   1.104  0.3724 -0.5883  0.3248
   51EMI     C2  952   6.591   3.951   0.977 -0.2120 -0.2634  0.0740
   51EMI     N3  953   6.656   3.833   0.961  0.1276 -0.1162  0.2273
   51EMI     C4  954   6.686   3.783   1.085 -0.7660 -0.0418  0.1010
   51EMI     C5  955   6.630   3.866   1.173 -0.2602  0.4570  0.0958
   51EMI     H2  956   6.567   4.024   0.898 -0.5748  1.1795  1.0172
   51EMI     H4  957   6.726   3.691   1.113  1.2727  2.5668 -1.2027
   51EMI     H5  958   6.628   3.858   1.285 -0.4939 -0.5751  3.2200
   51EMI    C1'  959   6.714   3.772   0.834  0.3927  0.7658  0.7069
   51EMI    H1'  960   6.819   3.765   0.842 -1.1472 -0.2775  0.8360
   51EMI    H1'  961   6.662   3.680   0.803 -0.7242  0.6112 -2.1643
   51EMI    H1'  962   6.701   3.856   0.763  0.6193 -4.9753 -0.6961
   51EMI    C1"  963   6.543   4.093   1.170  0.0134  0.1032  0.1311
   51EMI    H1"  964   6.623   4.162   1.164  0.7971  0.6959  0.9222
   51EMI    H1"  965   6.522   4.086   1.283  0.7129  0.7329  2.2745
   51EMI    C2"  966   6.430   4.160   1.101  0.3147 -0.2704 -0.1533
   51EMI    H2"  967   6.342   4.093   1.091 -2.0369 -0.5158 -0.7223
   51EMI    H2"  968   6.396   4.243   1.160 -0.4765  0.8728 -0.0091
   51EMI    H2"  969   6.473   4.189   1.001 -0.2679  1.2618  3.2971
   52EMI     N1  970   0.443   6.255   1.372  0.0693  0.1584 -0.7005
   52EMI     C2  971   0.470   6.318   1.260 -0.1202 -1.0344  0.3046
   52EMI     N3  972   0.367   6.390   1.217 -0.0919  0.9005  0.4895
   52EMI     C4  973   0.271   6.383   1.318  0.0291 -0.1717 -0.4420
   52EMI     C5  974   0.320   6.305   1.409 -0.4874  0.2977 -0.2370
   52EMI     H2  975   0.562   6.313   1.195 -0.3328  1.7129  0.4767
   52EMI     H4  976   0.177   6.436   1.327  0.6789 -2.5125 -3.5802
   52EMI     H5  977   0.269   6.280   1.499  0.7822 -1.2749 -2.8425
   52EMI    C1'  978   0.366   6.476   1.103 -0.3034 -0.0706 -0.1084
   52EMI    H1'  979   0.305   6.429   1.024  0.5024  2.7840 -1.6939
   52EMI    H1'  980   0.318   6.574   1.132  1.3955 -1.8300  3.5587
   52EMI    H1'  981   0.469   6.488   1.063 -0.8036 -1.8417 -4.3764
   52EMI    C1"  982   0.514   6.150   1.453 -0.3266  0.8898 -0.1883
   52EMI    H1"  983   0.440   6.085   1.485  2.5380  2.3672  0.4605
   52EMI    H1"  984   0.562   6.201   1.532  0.4692 -1.1954  0.0032
   52EMI    C2"  985   0.614   6.072   1.361  0.3113  0.1485  0.4191
   52EMI    H2"  986   0.690   6.135   1.310  0.4092 -0.5235 -1.3442
   52EMI    H2"  987   0.666   6.004   1.414 -1.4399  0.9316 -2.3018
   52EMI    H2"  988   0.555   6.011   1.287 -1.9417  0.1570 -1.0255
   53EMI     N1  989   4.000   1.898   2.872  0.0768 -0.2299 -0.0754
   53EMI     C2  990   4.012   2.030   2.871 -0.2216 -0.5665  0.4034
   53EMI     N3  991   3.968   2.081   2.985 -0.2998  0.0823 -0.3754
   53EMI     C4  992   3.919   1.978   3.056  0.2096 -0.0761 -0.1268
   53EMI     C5  993   3.933   1.867   2.986  1.1642 -0.4104 -0.0212
   53EMI     H2  994   4.058   2.092   2.798 -0.1891  3.0321  1.2569
   53EMI     H4  995   3.872   2.007   3.146 -1.5728 -2.0218 -0.5226
   53EMI     H5  996   3.896   1.771   3.023 -3.5641 -0.2292  3.3754
   53EMI    C1'  997   3.975   2.215   3.048 -1.8448  0.1864 -0.4243
   53EMI    H1'  998   3.890   2.267   3.003  0.7506 -1.8636 -1.8096
   53EMI    H1'  999   3.960   2.216   3.159  0.3462 -2.5393 -0.4687
   53EMI    H1' 1000   4.066   2.271   3.015  0.2825 -2.4355 -0.5875
   53EMI    C1" 1001   4.030   1.794   2.767 -0.7922  0.7111  0.0993
   53EMI    H1" 1002   3.974   1.700   2.789  2.1096 -1.0577  0.1470
   53EMI    H1" 1003   4.136   1.763   2.771 -0.7134 -1.9708  0.0051
   53EMI    C2" 1004   3.998   1.849   2.627 -0.3399  0.3775  0.1343
   53EMI    H2" 1005   4.035   1.781   2.548 -2.8937 -1.4996  1.1389
   53EMI    H2" 1006   3.888   1.835   2.612 -1.1355 -0.9597 -1.6900
   53EMI    H2" 1007   4.008   1.958   2.615  1.5204  1.0562 -0.4872
   54EMI     N1 1008   4.244   3.155   4.437 -0.3837  0.1211 -0.4062
   54EMI     C2 1009   4.358   3.085   4.457  1.0100  0.6809 -0.5206
   54EMI     N3 1010   4.358   3.018   4.573  0.2482  0.4969  0.2655
   54EMI     C4 1011   4.240   3.052   4.640 -0.5681  0.4555 -0.2958
   54EMI     C5 1012   4.177   3.142   4.557  0.1629  0.7061  0.0580
   54EMI     H2 1013   4.443   3.075   4.395  1.7668 -0.2477 -0.9727
   54EMI     H4 1014   4.203   3.014   4.740 -2.2701  0.3819  1.1844
   54EMI     H5 1015   4.092   3.203   4.575  0.0724  1.4003  0.1436
   54EMI    C1' 1016   4.449   2.919   4.633  0.0040 -0.0887 -0.4565
   54EMI    H1' 1017   4.415   2.818   4.622 -1.8899  2.8222 -2.0031
   54EMI    H1' 1018   4.548   2.922   4.582  0.1810  0.2137  0.9492
   54EMI    H1' 1019   4.456   2.945   4.742  0.2369 -1.1548  1.5782
   54EMI    C1" 1020   4.201   3.254   4.336 -0.5597  0.2659 -0.7790
   54EMI    H1" 1021   4.099   3.262   4.337 -0.8988 -0.0617 -0.2663
   54EMI    H1" 1022   4.232   3.226   4.233 -0.6027 -0.2393 -3.4046
   54EMI    C2" 1023   4.263   3.391   4.375 -0.5078  1.1384 -0.7037
   54EMI    H2" 1024   4.371   3.385   4.360 -2.9108  0.6310  0.8844
   54EMI    H2" 1025   4.234   3.458   4.291 -1.6982  3.4823 -1.9419
   54EMI    H2" 1026   4.223   3.434   4.465 -0.2103 -0.2990  1.8972
   55EMI     N1 1027   5.663   5.485   4.478 -0.2049 -0.1491  1.0008
   55EMI     C2 1028   5.644   5.541   4.356  0.3703  0.0154  0.2261
   55EMI     N3 1029   5.577   5.657   4.373 -0.2529 -0.4500 -0.1370
   55EMI     C4 1030   5.545   5.671   4.511  0.0217  0.0278 -0.4745
   55EMI     C5 1031   5.605   5.566   4.571  0.5211 -0.1794  0.3557
   55EMI     H2 1032   5.667   5.495   4.262  0.9869 -1.0281  1.6710
   55EMI     H4 1033   5.483   5.747   4.560 -4.3745 -0.9400  2.5094
   55EMI     H5 1034   5.601   5.542   4.674  0.3682  1.1683 -1.8195
   55EMI    C1' 1035   5.542   5.764   4.274  1.0044 -1.3251 -0.2475
   55EMI    H1' 1036   5.604   5.744   4.182  0.7958 -1.0624  0.9819
   55EMI    H1' 1037   5.436   5.776   4.250  0.5833 -3.6379 -0.7272
   55EMI    H1' 1038   5.578   5.862   4.315  1.1992  0.5081  3.5253
   55EMI    C1" 1039   5.699   5.348   4.510  0.3969  0.4261  0.2743
   55EMI    H1" 1040   5.794   5.346   4.565  1.0047  0.0501 -1.1247
   55EMI    H1" 1041   5.725   5.300   4.414  0.8537  0.1792  0.1479
   55EMI    C2" 1042   5.597   5.262   4.581 -0.3016  0.3466  0.8386
   55EMI    H2" 1043   5.631   5.160   4.608  0.3172 -2.0165 -1.2809
   55EMI    H2" 1044   5.561   5.326   4.660  1.9590  0.7098  3.1765
   55EMI    H2" 1045   5.513   5.237   4.518  0.3231 -0.2957  2.2325
   56EMI     N1 1046   6.657   6.205   0.588 -0.1522  0.1628  0.3879
   56EMI     C2 1047   6.777   6.263   0.579  0.2461 -0.0893  0.7238
   56EMI     N3 1048   6.830   6.242   0.457 -0.0485  0.6736  1.0669
   56EMI     C4 1049   6.736   6.171   0.385 -0.6074 -0.5138 -0.1788
   56EMI     C5 1050   6.632   6.151   0.465 -0.0978 -0.4844 -0.1315
   56EMI     H2 1051   6.824   6.301   0.663 -0.7933  0.3753  0.9479
   56EMI     H4 1052   6.748   6.139   0.282 -2.2727 -0.8723 -2.0372
   56EMI     H5 1053   6.540   6.101   0.443 -2.2849 -3.3549 -0.4566
   56EMI    C1' 1054   6.956   6.299   0.400  0.4781  0.6981 -0.0519
   56EMI    H1' 1055   6.936   6.411   0.399 -1.6531 -0.1490  0.8229
   56EMI    H1' 1056   7.046   6.266   0.458  0.8657 -0.1955  0.9072
   56EMI    H1' 1057   6.961   6.261   0.293 -1.3020 -1.1425  0.8175
   56EMI    C1" 1058   6.557   6.208   0.695 -0.6087 -0.2402 -0.0188
   56EMI    H1" 1059   6.458   6.192   0.663  0.3996  0.1435 -1.9594
   56EMI    H1" 1060   6.561   6.303   0.752  0.3838 -0.2262  2.1709
   56EMI    C2" 1061   6.605   6.113   0.803  0.0147  0.1559 -0.1132
   56EMI    H2" 1062   6.633   6.023   0.752 -0.2281  0.7907 -0.9414
   56EMI    H2" 1063   6.697   6.153   0.848  0.1329  0.8772 -0.0652
   56EMI    H2" 1064   6.535   6.099   0.885  0.5444  1.0755  1.0171
   57EMI     N1 1065   5.739   5.374   3.055  0.2439  0.6883  0.3247
   57EMI     C2 1066   5.815   5.364   2.945 -0.1126  0.3207 -0.1393
   57EMI     N3 1067   5.929   5.306   2.972 -0.0066  0.5247  0.1900
   57EMI     C4 1068   5.921   5.268   3.098  0.2950 -0.3310 -0.4087
   57EMI     C5 1069   5.810   5.307   3.155  0.4800 -0.1160  0.6186
   57EMI     H2 1070   5.790   5.419   2.856  2.2512  0.8040 -1.4178
   57EMI     H4 1071   5.996   5.211   3.145 -0.6709 -0.4100 -0.6735
   57EMI     H5 1072   5.763   5.292   3.248  0.9051  1.4460 -4.6111
   57EMI    C1' 1073   6.055   5.284   2.894 -0.4802  0.3065 -0.2994
   57EMI    H1' 1074   6.059   5.360   2.820 -0.1354  0.5276 -1.2872
   57EMI    H1' 1075   6.138   5.294   2.960 -1.6879  0.6057  0.1193
   57EMI    H1' 1076   6.039   5.187   2.855  1.0966  0.6415 -0.3258
   57EMI    C1" 1077   5.606   5.433   3.070  0.0095  0.1224 -0.0518
   57EMI    H1" 1078   5.539   5.349   3.048 -1.4460 -2.4193 -2.0548
   57EMI    H1" 1079   5.586   5.509   3.000 -0.0492  2.0793 -0.9115
   57EMI    C2" 1080   5.588   5.500   3.206 -0.5766  0.0307  0.0159
   57EMI    H2" 1081   5.489   5.539   3.217  0.1508 -0.1593  2.3322
   57EMI    H2" 1082   5.609   5.432   3.281 -2.7606  0.3644 -1.9035
   57EMI    H2" 1083   5.661   5.585   3.212  1.3051  2.2153  0.2138
   58EMI     N1 1084   3.033   4.473   1.603 -0.7869  0.2762  0.0481
   58EMI     C2 1085   2.905   4.467   1.647  0.5091 -0.0555 -0.2085
   58EMI     N3 1086   2.894   4.536   1.763 -0.1608 -0.7149 -0.4494
   58EMI     C4 1087   3.022   4.584   1.799  0.7486  0.0868 -0.6026
   58EMI     C5 1088   3.103   4.545   1.699  0.4061  0.6424 -0.0273
   58EMI     H2 1089   2.824   4.419   1.596  0.5715  1.6175  1.6614
   58EMI     H4 1090   3.044   4.643   1.889  0.0916 -0.4274 -2.0132
   58EMI     H5 1091   3.198   4.568   1.696 -1.4724 -0.2953 -0.5100
   58EMI    C1' 1092   2.772   4.573   1.838 -0.3584 -0.0010 -0.1610
   58EMI    H1' 1093   2.738   4.481   1.874  3.2390 -0.4730  2.5855
   58EMI    H1' 1094   2.785   4.641   1.918 -0.2045  0.8936  1.5236
   58EMI    H1' 1095   2.698   4.601   1.765 -1.2531  1.8155  0.6111
   58EMI    C1" 1096   3.106   4.417   1.485 -0.1308 -0.6890  0.3084
   58EMI    H1" 1097   3.055   4.342   1.442  2.1931  1.9808  0.0946
   58EMI    H1" 1098   3.201   4.370   1.516  0.0271 -1.6317 -2.6175
   58EMI    C2" 1099   3.127   4.531   1.391  0.0139 -0.0862  0.0433
   58EMI    H2" 1100   3.027   4.569   1.363  0.7507  2.0623 -0.6382
   58EMI    H2" 1101   3.194   4.610   1.426 -0.1232 -2.1173  1.0214
   58EMI    H2" 1102   3.172   4.472   1.310  0.3269 -0.1897  1.0649
   59EMI     N1 1103   5.764   5.053   2.036 -0.2570 -0.5381 -0.2456
   59EMI     C2 1104   5.891   5.070   2.068  0.0674  0.2434 -0.0556
   59EMI     N3 1105   5.902   5.111   2.198 -0.1016  0.5370 -0.0533
   59EMI     C4 1106   5.776   5.090   2.261  0.3472  0.5949 -0.1492
   59EMI     C5 1107   5.690   5.073   2.160  0.1259 -0.1233 -0.0044
   59EMI     H2 1108   5.981   5.062   2.003 -0.1012 -0.3238  1.3032
   59EMI     H4 1109   5.752   5.114   2.359  0.1824  0.1741  0.3775
   59EMI     H5 1110   5.581   5.057   2.167  1.5989  1.4894  0.5967
   59EMI    C1' 1111   6.016   5.161   2.277  0.5496 -0.9085 -0.4768
   59EMI    H1' 1112   5.988   5.149   2.377 -0.2254 -0.3372  0.6722
   59EMI    H1' 1113   6.107   5.112   2.251  2.1240 -1.9491  0.6612
   59EMI    H1' 1114   6.019   5.265   2.250 -2.4222  1.2534 -2.4262
   59EMI    C1" 1115   5.701   5.024   1.905  0.3707  0.0703  0.1013
   59EMI    H1" 1116   5.723   5.105   1.836 -1.0073 -0.8612 -0.6286
   59EMI    H1" 1117   5.594   5.012   1.910  1.0176  0.5147  0.9570
   59EMI    C2" 1118   5.751   4.891   1.844 -0.4598  0.4974 -0.3544
   59EMI    H2" 1119   5.867   4.893   1.825 -1.9762  0.3620 -4.8132
   59EMI    H2" 1120   5.720   4.806   1.904  1.6549  1.2341  0.7942
   59EMI    H2" 1121   5.703   4.889   1.747 -1.4703 -1.5031 -1.7391
   60EMI     N1 1122   5.011   1.037   2.602  0.2894 -0.1731 -0.2788
   60EMI     C2 1123   5.101   1.003   2.508 -0.2531  0.2872  0.0110
   60EMI     N3 1124   5.226   1.022   2.557 -0.0735  0.0389  0.7840
   60EMI     C4 1125   5.214   1.046   2.692  0.2344  0.1185 -0.1127
   60EMI     C5 1126   5.080   1.058   2.719  0.4385 -0.5276 -0.2374
   60EMI     H2 1127   5.083   0.982   2.408  2.9406 -1.4003 -0.5584
   60EMI     H4 1128   5.296   1.058   2.763  2.2446  0.3408 -0.2877
   60EMI     H5 1129   5.035   1.074   2.813 -2.5290 -0.9393 -1.8190
   60EMI    C1' 1130   5.357   1.023   2.490 -0.5008 -0.3353 -0.0939
   60EMI    H1' 1131   5.366   0.921   2.446 -1.5946 -3.4277  0.9643
   60EMI    H1' 1132   5.357   1.089   2.411 -0.0196 -1.2502 -0.9557
   60EMI    H1' 1133   5.443   1.046   2.555 -1.0087 -1.3166 -0.1788
   60EMI    C1" 1134   4.861   1.059   2.608 -0.8349 -0.3666  0.4837
   60EMI    H1" 1135   4.829   1.101   2.506  2.1188  0.0087  0.7886
   60EMI    H1" 1136   4.847   1.141   2.681 -1.2750  1.6139  0.0250
   60EMI    C2" 1137   4.789   0.931   2.644  0.3151 -0.0095  0.4987
   60EMI    H2" 1138   4.679   0.953   2.655  0.0842  1.0778 -0.1472
   60EMI    H2" 1139   4.792   0.858   2.569  0.0690 -0.3603  1.0826
   60EMI    H2" 1140   4.822   0.885   2.737 -0.1960  1.0157  0.7673
   61EMI     N1 1141   3.451   2.998   4.501  0.0530 -0.6669 -0.4658
   61EMI     C2 1142   3.416   3.028   4.627  0.1145 -0.3004 -0.1361
   61EMI     N3 1143   3.283   3.058   4.627 -0.3189  0.1802  0.5885
   61EMI     C4 1144   3.232   3.035   4.501  0.6315  0.3007  0.2925
   61EMI     C5 1145   3.337   3.001   4.427 -0.6430 -0.2590 -0.1206
   61EMI     H2 1146   3.489   3.057   4.707 -1.8395 -1.3106 -0.0145
   61EMI     H4 1147   3.122   3.042   4.472  0.0528  0.2057 -0.5411
   61EMI     H5 1148   3.323   2.967   4.325 -1.7034  0.9375 -2.1082
   61EMI    C1' 1149   3.198   3.112   4.732 -0.3471 -0.3654 -0.5716
   61EMI    H1' 1150   3.140   3.200   4.692 -0.2755 -0.2834  1.1055
   61EMI    H1' 1151   3.128   3.043   4.779 -0.3610 -1.1895 -0.1295
   61EMI    H1' 1152   3.271   3.149   4.802  0.2101 -2.1760 -0.0382
   61EMI    C1" 1153   3.586   2.958   4.450 -1.0852 -0.0057 -0.0090
   61EMI    H1" 1154   3.657   3.028   4.495  2.5566  2.5201 -0.5172
   61EMI    H1" 1155   3.595   2.960   4.340  1.0382  1.1070  1.3594
   61EMI    C2" 1156   3.626   2.820   4.494 -0.4808  0.5026  0.0609
   61EMI    H2" 1157   3.712   2.785   4.443  0.4909  2.4659 -1.2784
   61EMI    H2" 1158   3.639   2.827   4.604 -0.9125  1.2752 -1.2062
   61EMI    H2" 1159   3.547   2.750   4.465  1.3742 -2.8071  1.0626
   62EMI     N1 1160   1.607   4.271   5.262  0.5551 -0.3312 -0.0591
   62EMI     C2 1161   1.720   4.208   5.229 -0.4079 -0.4310 -0.4265
   62EMI     N3 1162   1.775   4.259   5.118  0.2363 -0.4250  0.5924
   62EMI     C4 1163   1.699   4.371   5.086  0.1023  0.7057 -0.0906
   62EMI     C5 1164   1.600   4.374   5.175  0.1983 -0.6517 -0.3146
   62EMI     H2 1165   1.762   4.125   5.283  0.2502 -3.1324  1.5566
   62EMI     H4 1166   1.717   4.434   5.004  0.9563  0.7455  0.7637
   62EMI     H5 1167   1.525   4.447   5.174 -0.0835 -0.1452 -0.4688
   62EMI    C1' 1168   1.884   4.205   5.036  0.1748  0.3957  0.2691
   62EMI    H1' 1169   1.911   4.103   5.077  2.4664  2.2667 -2.5147
   62EMI    H1' 1170   1.848   4.209   4.933 -2.2972 -0.1003 -2.2423
   62EMI    H1' 1171   1.968   4.277   5.049 -0.0520  0.5743 -1.3454
   62EMI    C1" 1172   1.498   4.242   5.357 -0.6485  0.2820  0.1886
   62EMI    H1" 1173   1.405   4.239   5.300  1.9099  0.0405  2.2476
   62EMI    H1" 1174   1.502   4.323   5.430  1.5587  0.8349 -4.5863
   62EMI    C2" 1175   1.529   4.106   5.422  0.2057  0.3123 -0.8736
   62EMI    H2" 1176   1.446   4.072   5.489 -0.3885 -0.9316 -0.9451
   62EMI    H2" 1177   1.553   4.019   5.359 -1.0675 -0.0954  0.5556
   62EMI    H2" 1178   1.617   4.119   5.484 -1.4220  1.1073 -1.6198
   63EMI     N1 1179   2.710   5.506   1.373  0.5776  0.0922  0.1166
   63EMI     C2 1180   2.684   5.394   1.299  0.0614  0.8794  0.4568
   63EMI     N3 1181   2.576   5.325   1.355  0.1528  0.0014 -0.1015
   63EMI     C4 1182   2.534   5.405   1.464  0.5447 -0.4242  0.2081
   63EMI     C5 1183   2.616   5.516   1.469 -0.6867  0.7502  0.2618
   63EMI     H2 1184   2.755   5.355   1.223 -0.0721 -1.9656  0.8682
   63EMI     H4 1185   2.444   5.384   1.523  0.4718 -0.6807 -1.4240
   63EMI     H5 1186   2.613   5.591   1.542 -0.9463 -1.5544  1.5739
   63EMI    C1' 1187   2.497   5.212   1.304 -0.1829  0.3507 -0.5269
   63EMI    H1' 1188   2.546   5.121   1.344 -1.2618 -1.4926  2.3586
   63EMI    H1' 1189   2.396   5.210   1.343  1.4012 -2.1910 -1.2019
   63EMI    H1' 1190   2.505   5.211   1.193 -1.1297  3.0097 -0.2893
   63EMI    C1" 1191   2.825   5.604   1.363 -0.2363  0.1613  0.1943
   63EMI    H1" 1192   2.774   5.693   1.321 -0.0812  1.4879 -1.3610
   63EMI    H1" 1193   2.894   5.552   1.283  0.6425 -1.0815  0.8331
   63EMI    C2" 1194   2.913   5.630   1.490 -0.5075 -0.0844  0.7717
   63EMI    H2" 1195   2.961   5.537   1.539  1.7315  0.3912  0.8329
   63EMI    H2" 1196   3.011   5.678   1.453 -0.5989 -0.9028  1.2743
   63EMI    H2" 1197   2.853   5.679   1.569  2.8880  0.3038  1.3581
   64EMI     N1 1198   0.540   1.991   5.774  1.0526 -0.1998 -0.3384
   64EMI     C2 1199   0.429   1.935   5.720 -0.5717 -0.2623  0.3495
   64EMI     N3 1200   0.387   1.834   5.792 -0.9578  0.6429 -0.4858
   64EMI     C4 1201   0.484   1.815   5.889 -0.0542 -0.2889 -0.3541
   64EMI     C5 1202   0.573   1.915   5.881  0.2012  0.4324 -0.3693
   64EMI     H2 1203   0.397   1.971   5.625  1.8092 -0.2622 -0.6301
   64EMI     H4 1204   0.466   1.743   5.973 -1.2988  1.1667 -1.4748
   64EMI     H5 1205   0.651   1.935   5.950  0.1047  0.4509  0.3333
   64EMI    C1' 1206   0.275   1.741   5.784 -0.5892 -0.5217  0.0549
   64EMI    H1' 1207   0.260   1.708   5.887 -0.4245  1.0172  0.6735
   64EMI    H1' 1208   0.188   1.792   5.750  1.6048 -2.2806  1.5481
   64EMI    H1' 1209   0.297   1.645   5.726  0.6458 -1.2640  0.2100
   64EMI    C1" 1210   0.606   2.117   5.741 -0.3481 -0.3749  0.1854
   64EMI    H1" 1211   0.591   2.193   5.816 -0.7983 -0.4399 -1.8410
   64EMI    H1" 1212   0.564   2.157   5.650  0.7972 -2.4698 -2.2426
   64EMI    C2" 1213   0.756   2.101   5.726 -0.2868  0.3779  0.4900
   64EMI    H2" 1214   0.795   2.191   5.685 -1.3739  0.7850  2.4964
   64EMI    H2" 1215   0.787   2.075   5.817 -3.9111  2.4377 -4.3201
   64EMI    H2" 1216   0.771   2.020   5.659 -0.4979  0.8564 -1.5110
   65EMI     N1 1217   5.035   1.963   0.260 -0.2896  0.2223  0.4278
   65EMI     C2 1218   5.088   1.919   0.147 -0.1161 -0.0462  0.2884
   65EMI     N3 1219   5.003   1.914   0.045  0.2226  0.4708  0.1476
   65EMI     C4 1220   4.886   1.961   0.100  0.1560 -0.4034  0.3558
   65EMI     C5 1221   4.903   1.989   0.232 -0.2864  0.3396 -0.9037
   65EMI     H2 1222   5.187   1.880   0.135 -0.0894  1.2268 -0.0573
   65EMI     H4 1223   4.789   1.971   0.040 -1.1944 -2.1317 -1.1382
   65EMI     H5 1224   4.828   2.027   0.297 -0.2545  1.6321 -1.0710
   65EMI    C1' 1225   5.008   1.869  -0.094 -0.0362  0.7564 -0.7117
   65EMI    H1' 1226   5.080   1.921  -0.162 -0.0552  0.3346 -0.4218
   65EMI    H1' 1227   5.034   1.768  -0.091 -0.4865  1.5680  0.7329
   65EMI    H1' 1228   4.914   1.862  -0.144 -0.2662 -1.6064 -0.2127
   65EMI    C1" 1229   5.098   1.961   0.395  0.9393 -0.4106  0.9574
   65EMI    H1" 1230   5.205   1.959   0.380  0.9953  0.7598 -0.8972
   65EMI    H1" 1231   5.068   1.865   0.441 -0.1724 -0.3861  1.2987
   65EMI    C2" 1232   5.049   2.081   0.465  0.2116  0.0336 -0.9095
   65EMI    H2" 1233   4.949   2.091   0.469  2.8389  2.5663  0.8788
   65EMI    H2" 1234   5.075   2.069   0.570 -0.1713  0.1270 -1.6564
   65EMI    H2" 1235   5.089   2.170   0.422 -3.1574 -2.7088  1.9315
   66EMI     N1 1236   5.143   1.795   4.746 -0.3158 -0.1915  0.3342
   66EMI     C2 1237   5.263   1.824   4.804  0.0481 -0.2312  0.4696
   66EMI     N3 1238   5.353   1.849   4.709  0.6649 -0.2434 -0.2563
   66EMI     C4 1239   5.291   1.828   4.588  0.2994  0.1396 -1.5649
   66EMI     C5 1240   5.163   1.789   4.608 -0.2714  0.2546 -0.0076
   66EMI     H2 1241   5.278   1.861   4.907  0.1331 -0.4477 -1.0142
   66EMI     H4 1242   5.340   1.834   4.496 -2.1302 -0.0145  0.6172
   66EMI     H5 1243   5.086   1.769   4.534  0.2600 -2.4012 -0.2673
   66EMI    C1' 1244   5.493   1.890   4.709 -0.3563 -1.3664 -0.3634
   66EMI    H1' 1245   5.552   1.814   4.652  1.8494 -1.9188  1.1270
   66EMI    H1' 1246   5.514   1.996   4.677 -1.0216  1.2540 -2.6171
   66EMI    H1' 1247   5.532   1.880   4.807 -4.2862  0.0328 -1.3889
   66EMI    C1" 1248   5.011   1.778   4.807 -0.5453  0.4000  1.4924
   66EMI    H1" 1249   5.032   1.706   4.882  3.4064 -0.8382  1.9563
   66EMI    H1" 1250   4.941   1.757   4.726  0.4702  2.3658  1.3600
   66EMI    C2" 1251   4.968   1.905   4.876 -0.6609 -0.2823 -0.1762
   66EMI    H2" 1252   4.867   1.893   4.910  3.2931  0.2873 -1.9725
   66EMI    H2" 1253   5.037   1.923   4.954  2.1614 -0.4655  0.3524
   66EMI    H2" 1254   4.972   1.987   4.808 -0.0449 -0.2622 -1.6959
   67EMI     N1 1255   0.339   4.639   0.173  0.0562  0.1995 -0.0913
   67EMI     C2 1256   0.242   4.729   0.163  0.4113 -0.0043  0.1397
   67EMI     N3 1257   0.216   4.779   0.278  0.0214  0.9691  0.3735
   67EMI     C4 1258   0.302   4.720   0.378  0.1407 -0.5687  0.8469
   67EMI     C5 1259   0.375   4.632   0.308 -0.3939 -0.5386  0.5695
   67EMI     H2 1260   0.192   4.745   0.072  1.8855  0.6878 -0.5098
   67EMI     H4 1261   0.314   4.744   0.481 -2.2373  1.1837  0.0197
   67EMI     H5 1262   0.446   4.558   0.354 -2.8093 -0.7848  0.3197
   67EMI    C1' 1263   0.097   4.853   0.321  0.5617  0.2888  0.6631
   67EMI    H1' 1264   0.085   4.940   0.246  0.8574 -0.2369 -1.5947
   67EMI    H1' 1265   0.005   4.799   0.314 -0.4583  0.2342 -0.6862
   67EMI    H1' 1266   0.101   4.899   0.423 -2.4846  0.2565  0.0999
   67EMI    C1" 1267   0.393   4.556   0.064 -0.1357 -0.1053 -0.2866
   67EMI    H1" 1268   0.306   4.514   0.017  0.4318 -0.1708 -2.6076
   67EMI    H1" 1269   0.452   4.478   0.111 -1.5219 -0.1180 -2.7679
   67EMI    C2" 1270   0.478   4.630  -0.037 -0.1971 -0.3281 -0.5962
   67EMI    H2" 1271   0.550   4.700   0.002  0.8762  0.4431  0.0434
   67EMI    H2" 1272   0.513   4.563  -0.113 -0.5408  0.6419  0.7402
   67EMI    H2" 1273   0.395   4.685  -0.081  0.7351 -1.2087  0.9315
   68EMI     N1 1274   1.141   1.452   6.230 -0.2630 -0.0613  0.1556
   68EMI     C2 1275   1.202   1.577   6.231  0.2830 -0.0468  0.4589
   68EMI     N3 1276   1.224   1.611   6.102 -0.4973 -0.8854  0.2212
   68EMI     C4 1277   1.182   1.505   6.022  0.1440 -0.5976 -0.2337
   68EMI     C5 1278   1.139   1.405   6.098  0.7632 -0.1168 -0.1815
   68EMI     H2 1279   1.233   1.622   6.320  0.0391 -1.0099 -0.4991
   68EMI     H4 1280   1.191   1.490   5.920  1.4556 -0.4818  3.0062
   68EMI     H5 1281   1.092   1.311   6.062  0.9372  0.5863  0.9814
   68EMI    C1' 1282   1.282   1.735   6.040  0.4757 -0.0675 -0.0445
   68EMI    H1' 1283   1.330   1.718   5.945 -0.6373  1.0188  1.0770
   68EMI    H1' 1284   1.202   1.809   6.017 -1.2207  0.8762  2.1807
   68EMI    H1' 1285   1.348   1.784   6.106 -1.8842  0.6066  0.6426
   68EMI    C1" 1286   1.085   1.372   6.339 -0.4488  0.5228  0.3576
   68EMI    H1" 1287   1.148   1.284   6.362 -0.2717  1.0265 -1.9548
   68EMI    H1" 1288   0.992   1.330   6.301 -0.0157  0.0640 -2.0002
   68EMI    C2" 1289   1.066   1.454   6.466  0.2328  0.6063  0.2538
   68EMI    H2" 1290   0.995   1.398   6.526  0.2712 -1.5360  0.7262
   68EMI    H2" 1291   1.161   1.472   6.523  2.4279 -0.1374  0.8881
   68EMI    H2" 1292   1.009   1.541   6.448  3.1895  0.4829 -1.6410
   69EMI     N1 1293   2.144   0.185   3.273  0.1276  0.7180 -0.5835
   69EMI     C2 1294   2.128   0.281   3.366  0.5693  0.0849 -0.0201
   69EMI     N3 1295   2.217   0.263   3.459  0.4207 -1.2088 -0.1066
   69EMI     C4 1296   2.277   0.140   3.441  0.5154 -0.0232  0.3379
   69EMI     C5 1297   2.239   0.094   3.318 -0.4177  0.0488  0.2239
   69EMI     H2 1298   2.060   0.365   3.353  0.2941  3.4654 -3.7111
   69EMI     H4 1299   2.340   0.088   3.517  1.3368 -1.0513 -0.4470
   69EMI     H5 1300   2.270   0.004   3.267  0.9974 -3.9672 -0.7778
   69EMI    C1' 1301   2.235   0.341   3.591 -0.5749 -0.1155  0.2753
   69EMI    H1' 1302   2.229   0.448   3.578  0.5330  0.1626 -0.7101
   69EMI    H1' 1303   2.156   0.306   3.659 -1.4829 -3.5506 -1.0816
   69EMI    H1' 1304   2.330   0.297   3.627 -2.7862  0.5547 -1.7581
   69EMI    C1" 1305   2.083   0.186   3.138  0.0005  0.1986  0.6249
   69EMI    H1" 1306   2.118   0.091   3.093  0.3284  3.3498  0.6667
   69EMI    H1" 1307   2.122   0.264   3.074  2.2482  1.4793  1.6682
   69EMI    C2" 1308   1.928   0.189   3.133  0.0228 -0.9350 -0.6459
   69EMI    H2" 1309   1.881   0.106   3.193 -2.7499  0.1811 -1.3320
   69EMI    H2" 1310   1.888   0.282   3.173 -0.6342 -1.8347 -0.8128
   69EMI    H2" 1311   1.897   0.179   3.026 -1.1592 -2.1144 -1.5506
   70EMI     N1 1312   3.578   0.729   0.930 -0.2558  0.1227  0.0952
   70EMI     C2 1313   3.675   0.670   0.854  0.9830  0.0786 -0.1976
   70EMI     N3 1314   3.624   0.554   0.810 -0.1925  0.1038  0.3121
   70EMI     C4 1315   3.495   0.538   0.850 -0.9830 -0.5602 -0.1316
   70EMI     C5 1316   3.465   0.646   0.924 -0.1392  0.0429  0.0443
   70EMI     H2 1317   3.778   0.701   0.825 -1.9770 -0.6019  1.7947
   70EMI     H4 1318   3.442   0.447   0.819  0.5011 -2.8972  1.9144
   70EMI     H5 1319   3.372   0.658   0.968 -0.2235  0.0099  0.9799
   70EMI    C1' 1320   3.689   0.434   0.744  0.0323 -0.5053  0.2991
   70EMI    H1' 1321   3.635   0.340   0.777 -0.7520  0.0302 -1.1921
   70EMI    H1' 1322   3.685   0.437   0.640  0.2493  0.6460  0.2705
   70EMI    H1' 1323   3.803   0.439   0.763 -0.9437  1.4232 -0.8597
   70EMI    C1" 1324   3.587   0.839   1.025  0.5705  0.2667 -0.3392
   70EMI    H1" 1325   3.624   0.795   1.119 -0.1823 -1.1136  2.6834
   70EMI    H1" 1326   3.485   0.882   1.035 -3.6233 -0.0241  0.9609
   70EMI    C2" 1327   3.689   0.948   0.990 -0.2387  0.4123 -0.2760
   70EMI    H2" 1328   3.787   0.892   0.980  0.8006 -0.3551  2.8874
   70EMI    H2" 1329   3.663   0.997   0.895 -2.4875 -0.1916 -3.9189
   70EMI    H2" 1330   3.699   1.006   1.080  0.1286 -0.1174 -0.2644
   71EMI     N1 1331   4.527   0.721   1.877 -0.2075  0.3771 -0.5484
   71EMI     C2 1332   4.406   0.727   1.821  0.0675 -0.0963  0.0034
   71EMI     N3 1333   4.317   0.759   1.914 -0.1525 -0.2484  0.2474
   71EMI     C4 1334   4.381   0.768   2.031  0.2843  0.0029 -0.4835
   71EMI     C5 1335   4.509   0.735   2.013 -0.0959 -0.2527 -0.2451
   71EMI     H2 1336   4.397   0.723   1.720  0.1526  0.4893  1.9567
   71EMI     H4 1337   4.327   0.793   2.119  0.4444  1.5610 -0.0023
   71EMI     H5 1338   4.594   0.740   2.085 -0.8963  3.1098 -1.2776
   71EMI    C1' 1339   4.174   0.783   1.907  0.9199  0.1256 -0.0715
   71EMI    H1' 1340   4.150   0.859   1.985 -1.4523  0.7060 -1.2490
   71EMI    H1' 1341   4.151   0.825   1.809  0.0569 -0.6010 -0.7325
   71EMI    H1' 1342   4.108   0.699   1.913 -1.8493  1.9639 -2.1913
   71EMI    C1" 1343   4.654   0.674   1.823  0.0191  0.3931 -0.8745
   71EMI    H1" 1344   4.629   0.597   1.747 -0.6994 -1.4821  0.5419
   71EMI    H1" 1345   4.705   0.618   1.902 -0.0502 -0.3467 -0.7617
   71EMI    C2" 1346   4.721   0.794   1.771 -0.4642  0.0234 -0.3240
   71EMI    H2" 1347   4.823   0.774   1.736  0.1667  5.0323 -1.3003
   71EMI    H2" 1348   4.663   0.837   1.689  1.0571  1.4862 -2.0810
   71EMI    H2" 1349   4.732   0.865   1.851  3.0679  1.4975  1.1314
   72EMI     N1 1350   6.500   1.577   2.862  0.2871 -0.2674  0.5981
   72EMI     C2 1351   6.568   1.453   2.872  0.5366  0.0915  0.4373
   72EMI     N3 1352   6.663   1.461   2.959  0.1403 -0.2691 -0.0357
   72EMI     C4 1353   6.669   1.590   2.994  1.0277  0.0181  0.0115
   72EMI     C5 1354   6.569   1.666   2.935  0.6837 -1.2441 -0.2351
   72EMI     H2 1355   6.532   1.364   2.811  0.7256 -0.6944 -2.8560
   72EMI     H4 1356   6.746   1.625   3.060 -1.2852 -1.4505 -1.8495
   72EMI     H5 1357   6.558   1.778   2.950  0.3815 -0.6177  0.7325
   72EMI    C1' 1358   6.754   1.364   3.012 -0.2921  0.1997  0.2108
   72EMI    H1' 1359   6.787   1.316   2.914  1.7512 -3.2221 -1.2948
   72EMI    H1' 1360   6.838   1.408   3.073 -0.8605 -1.0213  0.4862
   72EMI    H1' 1361   6.701   1.290   3.062  1.7189 -0.8046 -0.4554
   72EMI    C1" 1362   6.387   1.618   2.775  0.2159  0.4491 -0.4936
   72EMI    H1" 1363   6.416   1.688   2.704  0.8786 -0.2662 -1.4122
   72EMI    H1" 1364   6.320   1.681   2.837  2.0169 -0.0580 -0.0425
   72EMI    C2" 1365   6.317   1.502   2.707  0.7342 -0.0994  0.3283
   72EMI    H2" 1366   6.241   1.544   2.644 -2.4163  0.0042  1.4426
   72EMI    H2" 1367   6.387   1.440   2.658 -0.6518  2.8112  0.9837
   72EMI    H2" 1368   6.260   1.453   2.793 -0.0984 -1.8007 -2.3595
   73EMI     N1 1369   3.439   1.038   4.644 -0.0255 -0.9970 -0.8207
   73EMI     C2 1370   3.517   1.039   4.535  0.4183 -0.3153 -0.0830
   73EMI     N3 1371   3.650   1.040   4.568  0.0869 -0.2855  0.0956
   73EMI     C4 1372   3.650   1.009   4.702 -0.6189 -0.1976  0.6444
   73EMI     C5 1373   3.523   1.009   4.745  0.0778  0.0933 -0.8963
   73EMI     H2 1374   3.487   1.051   4.431  0.3166  1.5097 -0.2436
   73EMI     H4 1375   3.740   1.007   4.765 -1.8792 -0.2263  0.5460
   73EMI     H5 1376   3.502   0.999   4.856 -2.1304 -3.5326  0.3852
   73EMI    C1' 1377   3.762   1.081   4.489 -0.0194  0.3560 -0.6933
   73EMI    H1' 1378   3.733   1.053   4.390  1.6091 -0.0458 -1.6953
   73EMI    H1' 1379   3.771   1.191   4.500  0.6500 -0.9749 -1.8978
   73EMI    H1' 1380   3.849   1.024   4.515 -1.4567 -1.8520  0.8295
   73EMI    C1" 1381   3.300   1.081   4.669  0.3215  0.1180  0.1960
   73EMI    H1" 1382   3.282   1.089   4.774 -1.4180 -1.2489  0.8858
   73EMI    H1" 1383   3.224   1.021   4.630 -0.1221  0.5872  0.1052
   73EMI    C2" 1384   3.290   1.223   4.611 -0.6207 -0.4551 -0.2117
   73EMI    H2" 1385   3.194   1.273   4.647  1.1339  4.0027 -1.3135
   73EMI    H2" 1386   3.373   1.278   4.648 -2.6700  1.8800  0.1204
   73EMI    H2" 1387   3.291   1.232   4.501  0.2550 -0.5601  1.0892
   74EMI     N1 1388   2.590   0.422   6.586  0.0308 -0.7556  0.0258
   74EMI     C2 1389   2.683   0.328   6.565  0.1100  0.5702 -0.7681
   74EMI     N3 1390   2.801   0.371   6.615  0.3256  0.6026 -0.3471
   74EMI     C4 1391   2.777   0.487   6.675  0.1423 -0.9247  0.1076
   74EMI     C5 1392   2.650   0.519   6.659 -0.8473 -0.0815  0.0872
   74EMI     H2 1393   2.667   0.226   6.533 -1.5765  2.1115  0.3477
   74EMI     H4 1394   2.844   0.556   6.731 -0.5571 -1.1482 -1.5628
   74EMI     H5 1395   2.609   0.615   6.700  0.0905 -0.9618  0.4524
   74EMI    C1' 1396   2.934   0.309   6.629 -0.4768  0.8414  0.9192
   74EMI    H1' 1397   3.003   0.358   6.694  0.2609  1.3163 -1.0236
   74EMI    H1' 1398   2.915   0.208   6.669  0.8463 -3.8027  0.2427
   74EMI    H1' 1399   2.985   0.302   6.535  0.1623 -4.3109  1.1195
   74EMI    C1" 1400   2.446   0.426   6.556 -0.0051  0.5194 -0.1893
   74EMI    H1" 1401   2.441   0.347   6.484  3.2484 -1.0273 -1.5555
   74EMI    H1" 1402   2.410   0.521   6.516 -0.2378  1.0671 -0.7240
   74EMI    C2" 1403   2.361   0.394   6.678 -0.4935 -0.6291  0.4927
   74EMI    H2" 1404   2.255   0.395   6.651  2.3822 -0.4688  0.5753
   74EMI    H2" 1405   2.384   0.297   6.723 -1.0043  0.2193 -0.5184
   74EMI    H2" 1406   2.374   0.467   6.748 -1.3817 -1.4777 -0.7504
   75EMI     N1 1407   2.073   0.340   1.688 -0.2793  0.3121 -0.3174
   75EMI     C2 1408   2.009   0.342   1.573  0.2436  0.3350 -0.1250
   75EMI     N3 1409   1.881   0.305   1.588 -0.9866  0.1723 -0.6315
   75EMI     C4 1410   1.862   0.281   1.720 -0.0161  0.1075 -0.4742
   75EMI     C5 1411   1.980   0.303   1.783  0.3713  0.0844 -0.3155
   75EMI     H2 1412   2.053   0.371   1.482 -1.0185  2.3124 -1.4801
   75EMI     H4 1413   1.777   0.243   1.781 -2.2833 -1.1603  1.0811
   75EMI     H5 1414   2.003   0.284   1.889 -0.9815  1.1233  1.6902
   75EMI    C1' 1415   1.769   0.297   1.493  0.0480 -0.5995 -0.3885
   75EMI    H1' 1416   1.775   0.200   1.436 -1.4808 -0.5199  0.5458
   75EMI    H1' 1417   1.678   0.291   1.547 -0.0997  2.0544  1.5549
   75EMI    H1' 1418   1.752   0.389   1.429 -1.4704  0.2916 -0.7898
   75EMI    C1" 1419   2.216   0.362   1.722 -0.5049  0.3649 -0.2805
   75EMI    H1" 1420   2.282   0.319   1.652 -0.0786  0.1602  1.3679
   75EMI    H1" 1421   2.240   0.302   1.812  0.1176 -1.2457  0.6221
   75EMI    C2" 1422   2.260   0.505   1.748  0.3601  0.0941 -0.0310
   75EMI    H2" 1423   2.367   0.507   1.758  2.0865  0.6239  0.0326
   75EMI    H2" 1424   2.227   0.576   1.669 -1.1353 -0.2607 -1.3142
   75EMI    H2" 1425   2.219   0.530   1.842  1.5272  0.0074 -1.2704
   76EMI     N1 1426   3.704   3.581   0.834  0.4669  0.3630  0.2608
   76EMI     C2 1427   3.635   3.603   0.947  0.0208  0.1412  0.1391
   76EMI     N3 1428   3.725   3.602   1.045 -0.3782  0.6176 -0.1520
   76EMI     C4 1429   3.846   3.564   1.001 -0.3027 -0.1680  0.3605
   76EMI     C5 1430   3.833   3.549   0.867 -0.6275 -0.9010  0.9157
   76EMI     H2 1431   3.532   3.638   0.956 -1.6532  1.3851  0.4901
   76EMI     H4 1432   3.939   3.539   1.054 -1.8907 -5.1207  2.0529
   76EMI     H5 1433   3.914   3.519   0.803 -1.4583 -3.3896  1.3522
   76EMI    C1' 1434   3.699   3.600   1.188  0.0867  0.3201  0.5047
   76EMI    H1' 1435   3.756   3.683   1.229 -1.1833 -3.3109 -0.2815
   76EMI    H1' 1436   3.595   3.608   1.205  1.9107 -0.4927 -0.9508
   76EMI    H1' 1437   3.732   3.511   1.239 -0.6910  1.6422 -0.4509
   76EMI    C1" 1438   3.662   3.585   0.694  0.0625 -0.2183 -0.0147
   76EMI    H1" 1439   3.553   3.569   0.690 -0.0579 -2.3209 -1.8879
   76EMI    H1" 1440   3.715   3.508   0.637  1.8130 -2.2101  3.4632
   76EMI    C2" 1441   3.696   3.724   0.640  0.6607 -0.2642  0.7568
   76EMI    H2" 1442   3.635   3.743   0.555  1.2549 -0.8399 -0.4475
   76EMI    H2" 1443   3.674   3.812   0.706  2.1830 -1.3791  0.8537
   76EMI    H2" 1444   3.803   3.732   0.616 -3.1212  1.3876  1.4935
   77EMI     N1 1445   4.676   5.407   3.003 -0.0846 -0.2409  0.2850
   77EMI     C2 1446   4.732   5.464   3.114 -0.2819 -0.3009  0.3037
   77EMI     N3 1447   4.789   5.367   3.192 -0.3587 -0.2066 -0.8789
   77EMI     C4 1448   4.771   5.247   3.128 -0.4391 -0.1379  0.5431
   77EMI     C5 1449   4.699   5.271   3.016 -0.1284 -0.1859 -0.7818
   77EMI     H2 1450   4.734   5.571   3.127 -1.6142  1.4482  0.6044
   77EMI     H4 1451   4.818   5.153   3.164 -1.9197 -1.6170  2.6447
   77EMI     H5 1452   4.659   5.198   2.954 -2.0315 -0.0511 -0.5565
   77EMI    C1' 1453   4.859   5.381   3.307 -0.1750 -0.5258 -0.5135
   77EMI    H1' 1454   4.958   5.410   3.291 -1.0194 -1.3944  0.0824
   77EMI    H1' 1455   4.817   5.455   3.366  0.6577 -1.7329 -0.6247
   77EMI    H1' 1456   4.856   5.298   3.368  0.2436  0.6500 -2.3338
   77EMI    C1" 1457   4.602   5.472   2.890  0.3555 -0.3590  0.4606
   77EMI    H1" 1458   4.510   5.507   2.928  2.3763 -1.5904 -0.7256
   77EMI    H1" 1459   4.588   5.402   2.809  0.1745 -2.3255 -0.4263
   77EMI    C2" 1460   4.688   5.584   2.840  0.8813  0.2122 -0.9039
   77EMI    H2" 1461   4.644   5.617   2.746 -1.1501  1.0838 -2.0066
   77EMI    H2" 1462   4.684   5.669   2.910 -0.3547 -0.4276 -0.8804
   77EMI    H2" 1463   4.787   5.539   2.833 -1.2321 -2.6517  0.9243
   78EMI     N1 1464   5.478   5.434   1.034 -0.1674  0.4435  0.3751
   78EMI     C2 1465   5.504   5.567   1.050  0.2914  0.8515 -0.1049
   78EMI     N3 1466   5.458   5.634   0.945  0.0652  0.2163  0.5755
   78EMI     C4 1467   5.422   5.541   0.851 -0.0591  0.3526  0.2050
   78EMI     C5 1468   5.437   5.423   0.905 -0.0419  0.0956 -0.1034
   78EMI     H2 1469   5.558   5.613   1.137  0.0148  1.4806 -2.3537
   78EMI     H4 1470   5.383   5.563   0.752 -3.0684  0.6380 -3.7687
   78EMI     H5 1471   5.415   5.330   0.857 -1.5069  1.5334 -1.6029
   78EMI    C1' 1472   5.455   5.782   0.913 -0.0982  0.5885  0.2196
   78EMI    H1' 1473   5.406   5.846   0.991 -0.8665 -3.1850  3.6307
   78EMI    H1' 1474   5.561   5.810   0.912 -0.2162 -1.1062  0.1660
   78EMI    H1' 1475   5.424   5.804   0.812  0.3042 -1.8954 -1.4807
   78EMI    C1" 1476   5.493   5.321   1.130 -0.5256  0.0400 -0.5660
   78EMI    H1" 1477   5.412   5.246   1.119  0.8323  1.5815  2.9063
   78EMI    H1" 1478   5.486   5.368   1.229  0.4343 -0.3888  2.1788
   78EMI    C2" 1479   5.629   5.257   1.114 -0.4234 -0.3736  0.0802
   78EMI    H2" 1480   5.705   5.327   1.150 -0.3082 -0.7213 -1.1986
   78EMI    H2" 1481   5.621   5.170   1.170 -1.5309 -1.6151 -2.2416
   78EMI    H2" 1482   5.642   5.229   1.006  2.4102 -0.5409 -2.2971
   79EMI     N1 1483   2.847   1.785   6.387 -0.2352  0.3085 -0.0752
   79EMI     C2 1484   2.752   1.698   6.434  1.4271  1.1949 -0.2300
   79EMI     N3 1485   2.808   1.579   6.480 -0.2850 -0.4160 -0.0629
   79EMI     C4 1486   2.944   1.600   6.456 -0.4919 -0.0056  0.2888
   79EMI     C5 1487   2.970   1.721   6.404 -0.1413 -0.0849 -0.1703
   79EMI     H2 1488   2.648   1.719   6.442 -1.7956  1.6704  0.5484
   79EMI     H4 1489   3.014   1.523   6.484  0.4149 -1.0155  0.1200
   79EMI     H5 1490   3.072   1.764   6.382 -3.1626  1.8198  0.7920
   79EMI    C1' 1491   2.754   1.447   6.528 -0.2066 -0.6171  0.7770
   79EMI    H1' 1492   2.827   1.371   6.551  1.0651  0.6720  0.9210
   79EMI    H1' 1493   2.703   1.473   6.625 -0.6231  1.5644  2.9709
   79EMI    H1' 1494   2.687   1.411   6.452 -1.1147  0.9982  0.7299
   79EMI    C1" 1495   2.834   1.928   6.356  0.2101  0.2784  0.3319
   79EMI    H1" 1496   2.915   1.992   6.383  1.7742 -0.5174 -3.7235
   79EMI    H1" 1497   2.731   1.953   6.394  1.6026  0.9109  0.4440
   79EMI    C2" 1498   2.827   1.941   6.201 -0.3707 -0.7337  0.9334
   79EMI    H2" 1499   2.913   1.882   6.172 -0.5538 -0.7094  2.3438
   79EMI    H2" 1500   2.740   1.902   6.157  1.3282 -0.3593  0.0886
   79EMI    H2" 1501   2.851   2.041   6.166  2.4790  2.0414 -1.6766
   80EMI     N1 1502   4.853   2.369   3.389  0.2479  0.3793  0.4662
   80EMI     C2 1503   4.833   2.238   3.406 -0.0006 -0.0020  0.8552
   80EMI     N3 1504   4.697   2.215   3.426 -0.4649  0.0820 -0.1948
   80EMI     C4 1505   4.636   2.335   3.430 -0.6362 -0.7146 -0.1315
   80EMI     C5 1506   4.729   2.433   3.396 -0.5853  0.0608 -0.1435
   80EMI     H2 1507   4.907   2.163   3.418 -0.7152  2.6124  0.3446
   80EMI     H4 1508   4.531   2.350   3.454  1.3372  1.0526 -1.2518
   80EMI     H5 1509   4.726   2.546   3.387  0.1630  2.2821 -1.1113
   80EMI    C1' 1510   4.623   2.093   3.459  0.0839 -0.2506 -0.2873
   80EMI    H1' 1511   4.668   2.046   3.548 -1.3348 -1.5753  0.1899
   80EMI    H1' 1512   4.524   2.121   3.492  0.4834  3.3247  0.3972
   80EMI    H1' 1513   4.613   2.020   3.374 -1.4694 -2.9066  0.5775
   80EMI    C1" 1514   4.975   2.446   3.362  0.9579  0.3075  0.4341
   80EMI    H1" 1515   5.054   2.420   3.431 -1.1984  0.5531  0.0285
   80EMI    H1" 1516   4.951   2.547   3.375 -1.3194  0.9538  1.2859
   80EMI    C2" 1517   5.030   2.432   3.222 -0.1010 -0.3304 -0.3475
   80EMI    H2" 1518   5.017   2.325   3.185 -1.0319  0.0682 -0.6826
   80EMI    H2" 1519   4.997   2.502   3.151  0.5914  0.7285 -1.0143
   80EMI    H2" 1520   5.130   2.446   3.229 -1.2705  1.9925  0.0191
   81EMI     N1 1521   4.410   3.245   2.566  0.1450 -0.4725 -0.4948
   81EMI     C2 1522   4.298   3.216   2.632  0.0294  0.1259 -0.0571
   81EMI     N3 1523   4.195   3.186   2.550 -0.5704 -0.4418  0.0197
   81EMI     C4 1524   4.257   3.166   2.425 -0.3515  1.0405  0.3670
   81EMI     C5 1525   4.382   3.211   2.434 -0.1429 -0.5270 -0.2177
   81EMI     H2 1526   4.292   3.227   2.742 -0.6638 -1.5572 -1.1696
   81EMI     H4 1527   4.217   3.118   2.340  3.1869 -1.3084  0.4411
   81EMI     H5 1528   4.445   3.218   2.349 -1.5662  3.0795 -0.6921
   81EMI    C1' 1529   4.051   3.155   2.571  0.6705 -0.1842 -0.2646
   81EMI    H1' 1530   4.009   3.242   2.623  2.6985  1.3357 -1.5565
   81EMI    H1' 1531   4.001   3.130   2.480 -2.4583 -0.6443 -0.8986
   81EMI    H1' 1532   4.040   3.073   2.641  1.4670  0.8058  0.4761
   81EMI    C1" 1533   4.539   3.290   2.618 -0.0326 -0.4008  0.7255
   81EMI    H1" 1534   4.620   3.256   2.559 -0.5862  1.0600  0.5171
   81EMI    H1" 1535   4.560   3.248   2.716  3.1999  2.3283  1.0486
   81EMI    C2" 1536   4.537   3.439   2.623 -0.3758  0.4505 -0.4375
   81EMI    H2" 1537   4.638   3.467   2.639 -0.1586  2.1360  1.2057
   81EMI    H2" 1538   4.491   3.489   2.530 -1.4369 -2.2074 -1.4969
   81EMI    H2" 1539   4.477   3.478   2.710 -2.7190 -0.0172  0.4308
   82EMI     N1 1540   6.722   3.208   6.777 -0.0826  0.1653  0.2760
   82EMI     C2 1541   6.647   3.120   6.847 -0.4305 -0.0090 -0.0502
   82EMI     N3 1542   6.581   3.181   6.947 -0.3819  0.3221 -0.0293
   82EMI     C4 1543   6.608   3.320   6.936  0.6747  0.0251  0.0094
   82EMI     C5 1544   6.696   3.333   6.834 -0.1695  0.1882 -0.4955
   82EMI     H2 1545   6.634   3.011   6.823  0.0579 -0.1823  3.0127
   82EMI     H4 1546   6.554   3.388   6.998  2.7026 -2.6122 -1.3213
   82EMI     H5 1547   6.733   3.431   6.789  0.1694  0.1687  2.8142
   82EMI    C1' 1548   6.486   3.124   7.036  0.0319  0.1872 -0.4614
   82EMI    H1' 1549   6.404   3.192   7.052  2.3654  0.5838  0.6453
   82EMI    H1' 1550   6.445   3.042   6.983  1.6856  0.9983 -2.1291
   82EMI    H1' 1551   6.518   3.085   7.129 -1.4881  1.2322  0.1217
   82EMI    C1" 1552   6.785   3.198   6.644  0.5275 -0.4633  0.0321
   82EMI    H1" 1553   6.759   3.292   6.590  0.7978 -0.1225  0.3153
   82EMI    H1" 1554   6.741   3.116   6.593  0.9525 -1.0556 -1.3328
   82EMI    C2" 1555   6.938   3.176   6.655  0.5132  0.8612 -0.2345
   82EMI    H2" 1556   6.984   3.264   6.691 -2.8263 -2.3719 -1.0275
   82EMI    H2" 1557   6.955   3.100   6.730 -1.3764  1.4229  0.6451
   82EMI    H2" 1558   6.982   3.131   6.567  1.7496  0.6463  0.6772
   83EMI     N1 1559   5.382   1.138   0.351 -0.0352  0.3792  0.4803
   83EMI     C2 1560   5.411   1.059   0.247 -0.1941  0.8417  0.8184
   83EMI     N3 1561   5.546   1.046   0.232 -0.4825  0.4376 -0.3739
   83EMI     C4 1562   5.606   1.116   0.333 -0.4222 -0.1711  0.6972
   83EMI     C5 1563   5.506   1.175   0.405 -0.7710  0.0316  0.1173
   83EMI     H2 1564   5.337   1.036   0.165 -0.4987  0.1745  2.0558
   83EMI     H4 1565   5.715   1.119   0.340  3.6116 -0.0540  0.2245
   83EMI     H5 1566   5.518   1.233   0.493  0.4890 -1.0119 -2.3461
   83EMI    C1' 1567   5.622   0.984   0.120  0.0571 -0.1626 -0.5343
   83EMI    H1' 1568   5.546   0.928   0.072  0.9581 -0.7603  1.6452
   83EMI    H1' 1569   5.660   1.077   0.064  0.0121  2.3819 -0.9315
   83EMI    H1' 1570   5.715   0.929   0.155  1.7312  0.0306 -1.9439
   83EMI    C1" 1571   5.247   1.182   0.407 -0.2128  0.2380 -0.0703
   83EMI    H1" 1572   5.184   1.218   0.329 -2.8879 -1.0930 -3.2926
   83EMI    H1" 1573   5.253   1.274   0.464  4.3538 -1.7064 -0.8303
   83EMI    C2" 1574   5.194   1.064   0.490 -0.2098 -0.1539  0.4611
   83EMI    H2" 1575   5.259   1.059   0.585  2.4793 -1.2991 -0.3728
   83EMI    H2" 1576   5.096   1.094   0.520  0.9843  1.3557 -2.0926
   83EMI    H2" 1577   5.198   0.968   0.434 -0.5226  1.6991 -0.9476
   84EMI     N1 1578   2.069   4.998   2.218 -0.2081  0.8353  0.4633
   84EMI     C2 1579   2.055   4.886   2.144 -0.4362 -0.2545  0.1518
   84EMI     N3 1580   2.149   4.889   2.043  0.3039 -0.4658  0.1896
   84EMI     C4 1581   2.229   4.998   2.066 -0.4646 -0.1756  0.1932
   84EMI     C5 1582   2.182   5.066   2.174 -0.6354 -0.0496  0.9941
   84EMI     H2 1583   1.971   4.823   2.170  1.9735 -2.4605  2.5073
   84EMI     H4 1584   2.314   5.020   1.998  0.3058 -1.3956  0.3861
   84EMI     H5 1585   2.222   5.155   2.208  1.0187 -0.9502 -1.2773
   84EMI    C1' 1586   2.187   4.796   1.934 -0.3924 -0.5828  0.2796
   84EMI    H1' 1587   2.212   4.702   1.986  0.2805 -2.6650  1.7103
   84EMI    H1' 1588   2.103   4.773   1.871  1.0043  2.4730  1.8862
   84EMI    H1' 1589   2.276   4.814   1.877 -0.4021 -1.9585 -0.0884
   84EMI    C1" 1590   1.980   5.037   2.336 -0.4157 -0.2740 -0.1143
   84EMI    H1" 1591   1.866   5.032   2.308  0.0626  1.8425 -2.9863
   84EMI    H1" 1592   2.015   5.144   2.363  1.6595 -0.1757 -0.2472
   84EMI    C2" 1593   2.003   4.941   2.455 -0.0870  0.0386  0.4248
   84EMI    H2" 1594   1.996   4.833   2.421 -1.3655  2.1322 -1.0703
   84EMI    H2" 1595   2.105   4.964   2.493  0.9378 -2.4836  1.7149
   84EMI    H2" 1596   1.918   4.968   2.527 -2.0633  0.6290  2.0657
   85EMI     N1 1597   4.752   6.552   3.152 -0.7534 -0.7604 -0.4533
   85EMI     C2 1598   4.697   6.583   3.267 -0.1212 -0.4698 -0.1855
   85EMI     N3 1599   4.600   6.673   3.248  0.4199 -0.3656  0.6506
   85EMI     C4 1600   4.589   6.699   3.110 -0.6888 -0.4603 -0.0092
   85EMI     C5 1601   4.684   6.621   3.048  0.5729  0.5909  0.7581
   85EMI     H2 1602   4.730   6.548   3.362  0.8246 -0.7336 -0.8145
   85EMI     H4 1603   4.521   6.766   3.058 -3.0295 -1.2134 -0.0318
   85EMI     H5 1604   4.709   6.635   2.945 -1.2803  2.0499 -2.0748
   85EMI    C1' 1605   4.517   6.746   3.352 -0.7210 -0.4463 -0.0014
   85EMI    H1' 1606   4.417   6.734   3.342  1.2872 -1.5054  1.4756
   85EMI    H1' 1607   4.537   6.705   3.452 -0.6531 -0.5225 -0.2780
   85EMI    H1' 1608   4.545   6.855   3.344  0.0153  1.2114  0.6662
   85EMI    C1" 1609   4.884   6.491   3.129 -0.5291 -0.4818 -0.1537
   85EMI    H1" 1610   4.952   6.577   3.157  0.3062  0.4411 -0.6492
   85EMI    H1" 1611   4.893   6.463   3.021 -0.8238  0.3715  1.0002
   85EMI    C2" 1612   4.911   6.368   3.221  0.3078  0.5380  0.3041
   85EMI    H2" 1613   5.009   6.342   3.199 -1.0944  0.1175  1.0430
   85EMI    H2" 1614   4.903   6.400   3.328  0.9892  0.0235  0.8926
   85EMI    H2" 1615   4.845   6.292   3.193  0.5057  0.6156  3.5723
   86EMI     N1 1616   0.275   5.428   4.419 -0.0796 -0.1969 -0.0914
   86EMI     C2 1617   0.393   5.401   4.475  0.0727 -0.4186 -0.5797
   86EMI     N3 1618   0.481   5.496   4.442  0.0388  0.5216  0.3257
   86EMI     C4 1619   0.411   5.599   4.369 -0.3869  0.8716  0.0782
   86EMI     C5 1620   0.285   5.558   4.359  0.3531 -0.0897  0.2086
   86EMI     H2 1621   0.429   5.316   4.527  0.7282  2.2649 -0.4943
   86EMI     H4 1622   0.451   5.691   4.343 -1.7756 -1.6681  1.3824
   86EMI     H5 1623   0.201   5.611   4.317 -0.5847 -2.9417  2.3320
   86EMI    C1' 1624   0.624   5.495   4.480 -0.4540 -0.2910  0.1140
   86EMI    H1' 1625   0.683   5.571   4.427  0.5013 -0.7783 -1.1640
   86EMI    H1' 1626   0.640   5.498   4.582  0.3505 -0.7153 -0.6936
   86EMI    H1' 1627   0.672   5.404   4.448 -1.1561  0.8966 -2.1233
   86EMI    C1" 1628   0.151   5.343   4.421  0.1127  0.1515  0.1634
   86EMI    H1" 1629   0.071   5.397   4.369  1.5534 -0.8810  2.0552
   86EMI    H1" 1630   0.115   5.343   4.527 -0.6962  1.8759 -2.2941
   86EMI    C2" 1631   0.149   5.203   4.359 -0.1142 -0.1823 -0.3804
   86EMI    H2" 1632   0.049   5.187   4.319 -1.7677 -1.3060  0.6097
   86EMI    H2" 1633   0.227   5.203   4.281  1.9337  0.2402  0.0604
   86EMI    H2" 1634   0.191   5.126   4.423 -0.4434  1.0409  0.6178
   87EMI     N1 1635   6.468   2.462   4.948 -0.1280  0.3230  1.1221
   87EMI     C2 1636   6.373   2.479   5.037  0.0439 -0.2056 -0.2111
   87EMI     N3 1637   6.396   2.593   5.108  0.3424  1.3476 -0.6308
   87EMI     C4 1638   6.508   2.653   5.049  0.2769 -0.5346  0.2626
   87EMI     C5 1639   6.554   2.568   4.957 -0.8029 -0.5264  0.7060
   87EMI     H2 1640   6.296   2.409   5.046 -0.3139  1.8506 -1.1987
   87EMI     H4 1641   6.556   2.748   5.069 -3.0496 -2.3779  1.3067
   87EMI     H5 1642   6.643   2.584   4.895 -1.4427  0.0891  0.1625
   87EMI    C1' 1643   6.317   2.653   5.216  0.1284 -0.4938  0.1715
   87EMI    H1' 1644   6.243   2.724   5.177  1.4089 -1.4446  0.8491
   87EMI    H1' 1645   6.265   2.578   5.279  0.4703  1.7052  4.0143
   87EMI    H1' 1646   6.387   2.703   5.286 -1.5518  0.7591  2.7871
   87EMI    C1" 1647   6.495   2.348   4.853 -0.1530 -1.2854 -0.1810
   87EMI    H1" 1648   6.594   2.360   4.818 -2.5024 -0.5367 -1.3262
   87EMI    H1" 1649   6.426   2.354   4.768 -1.2032  1.0924  1.1056
   87EMI    C2" 1650   6.477   2.220   4.922  0.2704  1.1773 -1.0270
   87EMI    H2" 1651   6.561   2.221   4.993  0.9435 -2.0230  0.8602
   87EMI    H2" 1652   6.378   2.212   4.964  2.2339 -0.4041 -0.3112
   87EMI    H2" 1653   6.482   2.150   4.837  0.4479  0.2953  0.2927
   88EMI     N1 1654   4.093   2.748   6.160  0.9054  0.1200  0.6346
   88EMI     C2 1655   3.973   2.782   6.206  0.3109  0.0324  0.3031
   88EMI     N3 1656   3.965   2.919   6.211 -0.0227  0.0972  0.0083
   88EMI     C4 1657   4.088   2.971   6.176  0.6714 -0.0110  0.0124
   88EMI     C5 1658   4.167   2.862   6.155  0.4808  0.4266  0.1444
   88EMI     H2 1659   3.894   2.711   6.228 -0.7688 -1.0290 -0.8615
   88EMI     H4 1660   4.108   3.075   6.185  0.1241  1.1514 -0.6231
   88EMI     H5 1661   4.271   2.854   6.123  0.5853  4.2683  1.2261
   88EMI    C1' 1662   3.859   3.007   6.254 -0.4929  0.2135 -0.0701
   88EMI    H1' 1663   3.762   2.960   6.237 -0.3568 -0.4396  0.0643
   88EMI    H1' 1664   3.868   3.019   6.365 -1.4935  0.8756  0.7614
   88EMI    H1' 1665   3.857   3.101   6.207  0.4156  2.0810 -1.8179
   88EMI    C1" 1666   4.156   2.611   6.146  0.6225 -0.0415 -0.2401
   88EMI    H1" 1667   4.261   2.618   6.175 -1.5001  0.8701 -3.8476
   88EMI    H1" 1668   4.158   2.565   6.041 -0.6096  0.3106 -1.3091
   88EMI    C2" 1669   4.086   2.503   6.228 -0.0765  0.3413 -0.1252
   88EMI    H2" 1670   3.987   2.484   6.185 -0.7864 -0.5515  0.6982
   88EMI    H2" 1671   4.148   2.419   6.252 -1.7868  0.0663  1.0846
   88EMI    H2" 1672   4.066   2.551   6.318 -1.1871  0.8870 -0.7773
   89EMI     N1 1673   3.157   0.241   3.476  0.2284  0.0852  0.5409
   89EMI     C2 1674   3.266   0.255   3.549 -0.3020 -0.2625  0.1828
   89EMI     N3 1675   3.373   0.232   3.476 -0.0074 -0.5125 -0.5490
   89EMI     C4 1676   3.333   0.201   3.353 -0.5321 -0.9768 -0.1645
   89EMI     C5 1677   3.197   0.211   3.351 -0.0874  0.6074  0.4681
   89EMI     H2 1678   3.263   0.295   3.652 -0.8742  2.4827  2.5303
   89EMI     H4 1679   3.389   0.181   3.267 -2.0740  0.0145  1.0060
   89EMI     H5 1680   3.124   0.196   3.273 -4.5757  0.5853  0.7002
   89EMI    C1' 1681   3.517   0.224   3.516  0.2072  0.3541 -0.1328
   89EMI    H1' 1682   3.568   0.314   3.491 -2.3098  0.3678 -2.1671
   89EMI    H1' 1683   3.532   0.190   3.617  0.8655  0.3178  0.6956
   89EMI    H1' 1684   3.563   0.151   3.452  1.4953  1.4976  0.9639
   89EMI    C1" 1685   3.017   0.253   3.507 -0.3950 -0.3156 -0.5475
   89EMI    H1" 1686   2.967   0.291   3.416 -0.2132  1.3343 -1.9249
   89EMI    H1" 1687   3.000   0.322   3.585  0.2621  0.0805 -1.8416
   89EMI    C2" 1688   2.962   0.117   3.554 -0.4738  0.6045  0.1802
   89EMI    H2" 1689   2.983   0.093   3.664 -1.1088  0.8176 -1.3774
   89EMI    H2" 1690   2.860   0.098   3.533 -0.0101 -2.0001  0.5699
   89EMI    H2" 1691   3.010   0.041   3.486  0.5009  2.0161  0.0092
   90EMI     N1 1692   1.594   2.708   6.697 -0.3811  0.1919  0.4722
   90EMI     C2 1693   1.599   2.841   6.699  0.2241  0.3816 -0.0974
   90EMI     N3 1694   1.590   2.883   6.829  0.7614  0.3569 -0.1995
   90EMI     C4 1695   1.602   2.773   6.911  0.5573  0.0078  0.4741
   90EMI     C5 1696   1.600   2.668   6.831  0.4015 -0.6104 -0.3695
   90EMI     H2 1697   1.593   2.902   6.613  3.2495  0.1578  2.2103
   90EMI     H4 1698   1.594   2.781   7.020 -0.0580 -1.2009  0.2185
   90EMI     H5 1699   1.610   2.573   6.865  1.5453  3.3278  1.1824
   90EMI    C1' 1700   1.582   3.013   6.886  0.3967 -0.8591 -0.4091
   90EMI    H1' 1701   1.495   3.067   6.845  1.2544 -3.1656  0.6511
   90EMI    H1' 1702   1.577   3.008   6.995 -2.4238 -0.0721 -1.0271
   90EMI    H1' 1703   1.669   3.070   6.850 -1.6116  2.1259 -0.0180
   90EMI    C1" 1704   1.589   2.608   6.590  0.4886  0.2711 -0.5711
   90EMI    H1" 1705   1.614   2.505   6.618  0.3020 -1.1362 -2.9504
   90EMI    H1" 1706   1.661   2.627   6.510 -2.2173 -0.8753  0.2043
   90EMI    C2" 1707   1.452   2.605   6.521  0.2345  0.1360  0.0174
   90EMI    H2" 1708   1.441   2.509   6.478  0.2039 -1.3169  1.7330
   90EMI    H2" 1709   1.379   2.623   6.596  1.1954 -0.0820 -1.2628
   90EMI    H2" 1710   1.450   2.687   6.442  0.0658  1.0630 -0.5896
   91EMI     N1 1711   0.982   1.138   4.440  0.0187 -0.5196 -0.3676
   91EMI     C2 1712   0.854   1.134   4.413  0.5267  0.4729  0.6651
   91EMI     N3 1713   0.786   1.106   4.526  0.6691 -0.6527 -0.1117
   91EMI     C4 1714   0.877   1.083   4.626  0.3029 -0.1496 -0.4388
   91EMI     C5 1715   1.001   1.100   4.568 -0.6156 -0.4227 -0.4806
   91EMI     H2 1716   0.808   1.153   4.316 -0.4533 -1.4257  3.0218
   91EMI     H4 1717   0.863   1.041   4.722 -1.5706 -1.1347  0.0386
   91EMI     H5 1718   1.093   1.078   4.616 -1.1363  1.8304 -0.8052
   91EMI    C1' 1719   0.639   1.097   4.562 -0.1405  0.2248  0.1436
   91EMI    H1' 1720   0.612   1.177   4.625  1.6689  0.3244  1.0712
   91EMI    H1' 1721   0.578   1.100   4.469 -1.4630 -0.2989  0.1269
   91EMI    H1' 1722   0.618   1.001   4.605 -0.8581 -0.3962  0.2437
   91EMI    C1" 1723   1.083   1.165   4.344 -0.2650  0.6477  0.0582
   91EMI    H1" 1724   1.035   1.223   4.265 -1.0275 -0.8378 -0.3293
   91EMI    H1" 1725   1.125   1.074   4.306 -1.6446  0.4497  0.1546
   91EMI    C2" 1726   1.192   1.253   4.386 -0.1235  0.2887  0.0949
   91EMI    H2" 1727   1.250   1.275   4.296 -0.6952  1.0432  0.7538
   91EMI    H2" 1728   1.139   1.342   4.412 -1.3354 -0.2637 -2.3793
   91EMI    H2" 1729   1.244   1.202   4.470  1.5756 -2.9249  2.5203
   92EMI     N1 1730   1.744   5.306   2.544 -0.4848  0.5841  0.3078
   92EMI     C2 1731   1.634   5.256   2.488  1.0786 -0.3559 -0.2476
   92EMI     N3 1732   1.634   5.280   2.353  0.1341 -0.4404 -0.3262
   92EMI     C4 1733   1.751   5.342   2.320  0.5086 -0.0903 -0.4697
   92EMI     C5 1734   1.816   5.356   2.438  0.2633 -0.1126 -0.4889
   92EMI     H2 1735   1.562   5.188   2.533 -3.2839  0.1402 -2.4794
   92EMI     H4 1736   1.791   5.371   2.225 -1.1357  0.7130  0.2566
   92EMI     H5 1737   1.906   5.404   2.447 -0.2075 -2.2548  0.8414
   92EMI    C1' 1738   1.533   5.248   2.245 -0.2208 -0.4883  0.2066
   92EMI    H1' 1739   1.546   5.326   2.165 -2.0364  3.5318 -2.6601
   92EMI    H1' 1740   1.549   5.149   2.198  2.8557 -1.9135 -0.5374
   92EMI    H1' 1741   1.428   5.263   2.283  0.7391  1.2819 -0.9581
   92EMI    C1" 1742   1.804   5.298   2.684 -0.3617  0.4579 -0.1274
   92EMI    H1" 1743   1.795   5.400   2.732  2.3572 -1.6672 -1.0350
   92EMI    H1" 1744   1.908   5.271   2.688  0.2521  1.9311  0.8395
   92EMI    C2" 1745   1.732   5.187   2.769  0.9130  0.0105  0.7958
   92EMI    H2" 1746   1.630   5.223   2.789  0.5756 -1.5142 -1.1573
   92EMI    H2" 1747   1.739   5.090   2.713 -0.2889 -0.6483 -3.2015
   92EMI    H2" 1748   1.790   5.168   2.858 -0.9983 -0.3610 -0.5227
   93EMI     N1 1749   2.785   5.990   2.413  0.1489 -0.4205  0.5274
   93EMI     C2 1750   2.745   6.096   2.486 -0.0903  0.4490 -0.4272
   93EMI     N3 1751   2.849   6.178   2.512 -0.0426 -0.3045  0.5042
   93EMI     C4 1752   2.955   6.127   2.439  0.5318  0.0427  0.1676
   93EMI     C5 1753   2.918   6.006   2.386  0.8714  0.1594 -0.2511
   93EMI     H2 1754   2.647   6.101   2.532  0.4295 -1.5854  0.4205
   93EMI     H4 1755   3.048   6.164   2.436  0.0752 -0.4159 -1.0179
   93EMI     H5 1756   2.973   5.943   2.316  2.5144 -0.9093 -1.4214
   93EMI    C1' 1757   2.850   6.299   2.593 -0.7563 -0.1245  0.4216
   93EMI    H1' 1758   2.950   6.340   2.608 -0.5659 -1.6055 -0.3371
   93EMI    H1' 1759   2.794   6.377   2.534 -1.3139 -0.1014  0.2635
   93EMI    H1' 1760   2.796   6.288   2.686  0.0042  0.5596  1.7382
   93EMI    C1" 1761   2.697   5.886   2.359  0.0393  1.1038 -0.0961
   93EMI    H1" 1762   2.687   5.900   2.247 -0.3101  2.3922  0.9429
   93EMI    H1" 1763   2.600   5.878   2.407 -1.6030  3.2714 -0.8541
   93EMI    C2" 1764   2.762   5.745   2.372  0.6374 -0.4063  0.1682
   93EMI    H2" 1765   2.852   5.732   2.311 -1.7766  0.6325 -1.5145
   93EMI    H2" 1766   2.791   5.718   2.468  0.4942  0.3084  0.7379
   93EMI    H2" 1767   2.692   5.674   2.329 -1.7201  1.6338 -1.1305
   94EMI     N1 1768   2.096   5.619   4.917 -1.0035  0.5122  0.4794
   94EMI     C2 1769   2.005   5.538   4.969 -0.1053  0.4523 -0.1521
   94EMI     N3 1770   2.036   5.499   5.093  0.1724  0.4486  0.5968
   94EMI     C4 1771   2.156   5.558   5.121  0.3118  0.1375  0.1571
   94EMI     C5 1772   2.190   5.635   5.011 -0.2581 -0.0969  0.0084
   94EMI     H2 1773   1.914   5.507   4.914  0.6279  0.4373  0.4461
   94EMI     H4 1774   2.211   5.554   5.212 -1.0750  0.2019 -1.4147
   94EMI     H5 1775   2.286   5.694   5.002  3.0473  1.6716 -1.1016
   94EMI    C1' 1776   1.978   5.399   5.188 -0.3669  0.4046  0.0253
   94EMI    H1' 1777   1.899   5.336   5.136 -3.7140  0.8517 -0.4709
   94EMI    H1' 1778   2.055   5.333   5.231 -1.5141 -2.5631  0.4552
   94EMI    H1' 1779   1.932   5.465   5.261  0.2335 -0.5261  0.7567
   94EMI    C1" 1780   2.093   5.694   4.796  0.4155  0.2572 -0.2218
   94EMI    H1" 1781   2.065   5.791   4.825  1.7975 -2.6813  3.7728
   94EMI    H1" 1782   2.016   5.654   4.727 -1.8500 -2.3877 -0.7103
   94EMI    C2" 1783   2.235   5.689   4.737  0.1215 -0.8309  0.4329
   94EMI    H2" 1784   2.313   5.713   4.812  0.8471 -3.9749  2.9303
   94EMI    H2" 1785   2.251   5.595   4.700 -0.8506 -0.4650  0.3468
   94EMI    H2" 1786   2.233   5.759   4.656  1.6505 -0.2004 -0.9031
   95EMI     N1 1787   5.805   1.979   3.810  0.3823  0.1499 -0.2464
   95EMI     C2 1788   5.728   1.889   3.744  0.4682  0.4279  0.4163
   95EMI     N3 1789   5.616   1.948   3.694  0.1434 -0.1280 -0.4780
   95EMI     C4 1790   5.621   2.080   3.736  0.4020  0.1250  0.0760
   95EMI     C5 1791   5.738   2.098   3.806 -0.2732  0.0862 -0.2095
   95EMI     H2 1792   5.766   1.791   3.720  0.6493  2.1011 -1.6418
   95EMI     H4 1793   5.544   2.156   3.725  2.2184 -0.7077  0.9206
   95EMI     H5 1794   5.764   2.189   3.858 -0.8047 -1.2266  1.0242
   95EMI    C1' 1795   5.525   1.895   3.594  0.5505  1.0158 -0.3095
   95EMI    H1' 1796   5.569   1.829   3.524 -0.0133 -0.8777  1.9645
   95EMI    H1' 1797   5.456   1.828   3.645 -0.3402 -1.5080  0.8489
   95EMI    H1' 1798   5.474   1.975   3.537 -4.2983 -0.2745 -1.6671
   95EMI    C1" 1799   5.914   1.958   3.902 -0.7878  0.1760  0.5600
   95EMI    H1" 1800   5.888   1.947   4.005  0.7577 -0.2361  1.0628
   95EMI    H1" 1801   5.978   2.043   3.899  0.9674  1.3956 -1.9925
   95EMI    C2" 1802   5.992   1.834   3.853 -0.3048 -0.2845 -0.3762
   95EMI    H2" 1803   5.932   1.743   3.873 -0.1835  0.0471  0.0677
   95EMI    H2" 1804   6.008   1.836   3.743  0.8970  1.9163 -0.8162
   95EMI    H2" 1805   6.082   1.829   3.919  0.2728  2.4659  0.4960
   96EMI     N1 1806   3.758   6.293   3.537 -0.1029  0.0910  0.1957
   96EMI     C2 1807   3.648   6.241   3.496  0.5306  0.1487 -0.2003
   96EMI     N3 1808   3.548   6.279   3.579  0.3479  0.0413 -0.5008
   96EMI     C4 1809   3.598   6.358   3.678 -0.2851 -0.1083 -0.8892
   96EMI     C5 1810   3.735   6.365   3.651  0.0715  0.3614  0.3512
   96EMI     H2 1811   3.625   6.183   3.410  1.0475  1.8265  0.3650
   96EMI     H4 1812   3.538   6.419   3.754  1.4299  3.2881  0.1943
   96EMI     H5 1813   3.809   6.433   3.693  0.9094  0.2258  1.0248
   96EMI    C1' 1814   3.406   6.243   3.564  0.1861 -0.1866  0.3833
   96EMI    H1' 1815   3.342   6.335   3.561  1.5087  1.2555  0.0660
   96EMI    H1' 1816   3.399   6.197   3.465 -0.7251 -2.6312 -0.2637
   96EMI    H1' 1817   3.383   6.173   3.646  2.1682 -0.8189 -0.7115
   96EMI    C1" 1818   3.889   6.291   3.482  0.2928  0.2027 -0.1794
   96EMI    H1" 1819   3.950   6.348   3.553 -0.6785 -0.1362  1.0458
   96EMI    H1" 1820   3.901   6.344   3.393  1.8338  0.2888 -0.8176
   96EMI    C2" 1821   3.943   6.143   3.471  0.0021 -0.5233  0.1593
   96EMI    H2" 1822   3.975   6.105   3.571 -0.3801 -0.2680  1.5267
   96EMI    H2" 1823   3.871   6.076   3.436  2.5830 -1.4449  0.8535
   96EMI    H2" 1824   4.030   6.128   3.410 -0.2508 -1.0812 -0.5765
   97EMI     N1 1825   1.510   5.441   4.853 -0.2276  0.3226  0.4038
   97EMI     C2 1826   1.428   5.500   4.945  0.3785 -0.0372  0.4386
   97EMI     N3 1827   1.453   5.635   4.949  0.7819 -0.4025 -0.1400
   97EMI     C4 1828   1.547   5.659   4.850  0.5228 -0.6439  0.1321
   97EMI     C5 1829   1.584   5.542   4.793  0.4634  0.1622  1.0779
   97EMI     H2 1830   1.359   5.456   5.014  0.2485  0.4783 -0.3158
   97EMI     H4 1831   1.582   5.761   4.817  0.5131  1.0452  0.7255
   97EMI     H5 1832   1.645   5.534   4.701 -1.1773 -1.7220  0.1304
   97EMI    C1' 1833   1.395   5.742   5.020  0.1990 -0.0042  0.2702
   97EMI    H1' 1834   1.308   5.794   4.961 -1.1592 -1.1832 -2.3218
   97EMI    H1' 1835   1.344   5.706   5.104  1.6265 -1.9577  0.0341
   97EMI    H1' 1836   1.473   5.804   5.059  1.0369 -3.2397  2.4308
   97EMI    C1" 1837   1.538   5.304   4.825  0.6157 -0.0015  0.8683
   97EMI    H1" 1838   1.572   5.300   4.717 -3.0373 -0.0965 -1.5941
   97EMI    H1" 1839   1.458   5.235   4.849  0.2236 -1.7912 -2.7493
   97EMI    C2" 1840   1.655   5.259   4.904  0.2346  0.2374  0.4104
   97EMI    H2" 1841   1.737   5.321   4.866  1.1689  0.8906  2.4657
   97EMI    H2" 1842   1.632   5.281   5.012 -0.3259  1.6665  1.0521
   97EMI    H2" 1843   1.672   5.155   4.896 -1.8433  2.3909  1.8272
   98EMI     N1 1844   1.221   4.777   4.199  0.5889 -0.2102  0.2863
   98EMI     C2 1845   1.115   4.841   4.144 -0.1443  0.7035  0.0852
   98EMI     N3 1846   1.161   4.943   4.063 -0.2946  0.1902  0.1744
   98EMI     C4 1847   1.299   4.947   4.076  0.3109 -0.4296  0.1950
   98EMI     C5 1848   1.333   4.848   4.160 -0.7735  0.3173 -0.2218
   98EMI     H2 1849   1.008   4.822   4.157  1.6941  0.9740  0.0635
   98EMI     H4 1850   1.372   5.019   4.027  1.8806  0.5339  1.5487
   98EMI     H5 1851   1.429   4.817   4.196 -1.8742 -0.2438 -0.3437
   98EMI    C1' 1852   1.079   5.037   3.987  0.0527  0.2140  1.1165
   98EMI    H1' 1853   1.043   5.107   4.057  1.4545  1.3453  2.9526
   98EMI    H1' 1854   1.132   5.085   3.905 -0.5424 -0.4745 -0.6461
   98EMI    H1' 1855   0.991   4.983   3.945 -1.4381  0.6758 -1.7737
   98EMI    C1" 1856   1.221   4.667   4.286  0.0093  0.7687 -0.4213
   98EMI    H1" 1857   1.288   4.591   4.246  0.5194 -1.3375  1.8070
   98EMI    H1" 1858   1.127   4.611   4.289 -0.1609 -1.5860  2.7490
   98EMI    C2" 1859   1.264   4.695   4.427  0.1205  0.5330 -0.5568
   98EMI    H2" 1860   1.252   4.599   4.474 -1.6610 -2.0423 -0.0405
   98EMI    H2" 1861   1.363   4.737   4.429  0.9384 -2.1519  0.6193
   98EMI    H2" 1862   1.186   4.763   4.478  0.3728  1.5337  3.3189
   99EMI     N1 1863   1.383   2.824   5.945  0.0156 -0.3047  0.1855
   99EMI     C2 1864   1.281   2.759   5.997 -0.2620 -0.4777 -0.6435
   99EMI     N3 1865   1.296   2.771   6.132  0.2393  0.2698 -0.4483
   99EMI     C4 1866   1.415   2.826   6.157 -0.2822 -0.3844  0.4874
   99EMI     C5 1867   1.471   2.858   6.044 -0.7174 -0.5458 -0.2018
   99EMI     H2 1868   1.209   2.699   5.954 -1.0358  2.7744  2.2992
   99EMI     H4 1869   1.466   2.829   6.255 -2.0313 -0.1782  0.7986
   99EMI     H5 1870   1.564   2.904   6.040  0.9004 -1.6746  1.4713
   99EMI    C1' 1871   1.213   2.711   6.245  0.0906  0.3036 -0.6448
   99EMI    H1' 1872   1.181   2.786   6.315 -1.1565  1.2765  1.3316
   99EMI    H1' 1873   1.126   2.690   6.180 -2.3513  1.2761 -3.9470
   99EMI    H1' 1874   1.264   2.614   6.286  0.3739 -0.1997 -0.7427
   99EMI    C1" 1875   1.415   2.854   5.807  0.1848 -0.1793  0.1738
   99EMI    H1" 1876   1.511   2.908   5.800 -2.7140 -0.0352 -1.7528
   99EMI    H1" 1877   1.341   2.926   5.756 -2.4152 -0.2763 -0.7173
   99EMI    C2" 1878   1.429   2.727   5.723  0.2800 -0.4667  0.3466
   99EMI    H2" 1879   1.338   2.669   5.702  0.5148 -0.4766  1.8286
   99EMI    H2" 1880   1.487   2.747   5.636 -1.1722  1.9203 -3.3940
   99EMI    H2" 1881   1.490   2.655   5.780  1.3000 -0.6501  0.3678
  100EMI     N1 1882   4.749   2.436   2.977  0.0572 -0.1123 -0.5947
  100EMI     C2 1883   4.644   2.418   3.058 -0.0168  0.2470 -1.2152
  100EMI     N3 1884   4.598   2.538   3.109  0.5719  0.7818 -0.3140
  100EMI     C4 1885   4.681   2.632   3.052  0.6473 -0.4745  0.6852
  100EMI     C5 1886   4.774   2.570   2.974 -0.1290  0.1952 -0.6413
  100EMI     H2 1887   4.602   2.323   3.077 -3.1845  2.1602  0.2661
  100EMI     H4 1888   4.674   2.742   3.064 -2.4646 -3.6108 -1.0478
  100EMI     H5 1889   4.855   2.619   2.915  0.2694 -0.0120  0.5813
  100EMI    C1' 1890   4.476   2.587   3.177  0.6111  0.1189  0.1344
  100EMI    H1' 1891   4.387   2.529   3.152  2.5357 -2.7732 -0.0158
  100EMI    H1' 1892   4.493   2.567   3.282 -2.2186 -3.3528 -1.1259
  100EMI    H1' 1893   4.457   2.686   3.156 -0.7532 -2.7200  1.4945
  100EMI    C1" 1894   4.839   2.333   2.911 -0.4895  0.1504  0.4067
  100EMI    H1" 1895   4.871   2.257   2.977  0.5142  0.9840 -4.2403
  100EMI    H1" 1896   4.921   2.380   2.856 -2.0388 -1.1804 -3.2518
  100EMI    C2" 1897   4.765   2.251   2.806 -0.0225  0.7683  0.2639
  100EMI    H2" 1898   4.698   2.184   2.857  2.6026  1.8461  1.3077
  100EMI    H2" 1899   4.709   2.316   2.744 -0.9619 -1.5249  0.2982
  100EMI    H2" 1900   4.838   2.194   2.747 -1.1298  0.2169 -0.0907
  101EMI     N1 1901   6.612   0.198   3.353  0.4172  0.1482 -0.0671
  101EMI     C2 1902   6.542   0.292   3.420 -0.6358 -0.1745  0.3587
  101EMI     N3 1903   6.597   0.318   3.539  0.2056  0.3657  0.3809
  101EMI     C4 1904   6.721   0.254   3.536  0.2931 -0.1013 -0.2400
  101EMI     C5 1905   6.732   0.184   3.422 -0.5539  0.1816 -0.5221
  101EMI     H2 1906   6.456   0.332   3.371  1.0827  1.5714  1.1458
  101EMI     H4 1907   6.790   0.261   3.610  1.3843  1.0892  1.7550
  101EMI     H5 1908   6.819   0.131   3.391 -1.6577  0.6502 -0.9608
  101EMI    C1' 1909   6.544   0.402   3.646  0.0863  0.0838 -0.2015
  101EMI    H1' 1910   6.433   0.403   3.661  0.3364 -2.8116 -1.9557
  101EMI    H1' 1911   6.586   0.378   3.742 -0.1785  2.0176  0.2164
  101EMI    H1' 1912   6.588   0.493   3.615  0.1759 -0.5631 -0.2350
  101EMI    C1" 1913   6.595   0.146   3.217 -0.0763  0.0059 -0.6556
  101EMI    H1" 1914   6.506   0.179   3.181  2.2275 -1.9062  1.3040
  101EMI    H1" 1915   6.588   0.039   3.220 -0.1737  0.5341  0.8266
  101EMI    C2" 1916   6.705   0.184   3.123  0.3070 -0.8513  0.5733
  101EMI    H2" 1917   6.671   0.152   3.026  0.5427 -0.6622 -1.2731
  101EMI    H2" 1918   6.697   0.293   3.128 -0.0736 -1.0011 -0.4504
  101EMI    H2" 1919   6.797   0.138   3.156  0.4736 -1.8920  1.1508
  102EMI     N1 1920   3.996   5.860   1.000 -0.1104  0.6698 -0.5559
  102EMI     C2 1921   4.110   5.881   0.933 -0.2473 -0.3672  0.6766
  102EMI     N3 1922   4.115   6.015   0.911 -0.7812  1.1898  0.0217
  102EMI     C4 1923   3.997   6.073   0.956 -0.8244  0.5241  0.1617
  102EMI     C5 1924   3.927   5.978   1.016  0.1511  0.2637 -0.9072
  102EMI     H2 1925   4.186   5.806   0.906  1.6635 -1.7062 -2.0091
  102EMI     H4 1926   3.970   6.179   0.944  0.3865  3.6383 -1.4277
  102EMI     H5 1927   3.829   5.998   1.059  0.0773  0.4487 -0.4650
  102EMI    C1' 1928   4.211   6.087   0.826 -0.2966 -0.1950 -0.4506
  102EMI    H1' 1929   4.210   6.193   0.844  2.0805 -0.2097 -0.3612
  102EMI    H1' 1930   4.316   6.047   0.843  0.0591 -2.4522  2.3628
  102EMI    H1' 1931   4.179   6.057   0.721 -1.3528 -1.3781 -0.2872
  102EMI    C1" 1932   3.950   5.739   1.072 -0.1153 -0.0678  0.8801
  102EMI    H1" 1933   3.994   5.654   1.029 -1.7320 -0.5025  0.8732
  102EMI    H1" 1934   3.840   5.730   1.063  0.3996  0.0168  0.0010
  102EMI    C2" 1935   3.992   5.745   1.218  0.2649  0.5004  0.0294
  102EMI    H2" 1936   3.936   5.675   1.267  2.5741  1.1890 -0.7137
  102EMI    H2" 1937   4.097   5.730   1.230 -2.0299 -2.2306  0.5689
  102EMI    H2" 1938   3.973   5.848   1.262 -2.8307 -1.7243  1.1680
  103EMI     N1 1939   5.760   4.979   0.173 -0.7984  0.0530 -0.3507
  103EMI     C2 1940   5.726   5.005   0.045  0.4258 -0.1192 -0.2191
  103EMI     N3 1941   5.667   4.902  -0.020  0.0110  0.2671 -0.0041
  103EMI     C4 1942   5.666   4.801   0.077  0.0309  0.6433 -0.4364
  103EMI     C5 1943   5.727   4.846   0.192 -0.0710 -0.1344 -0.0421
  103EMI     H2 1944   5.755   5.094  -0.009  2.9510  0.7490 -0.8653
  103EMI     H4 1945   5.630   4.703   0.049  1.9492 -1.4908 -0.6236
  103EMI     H5 1946   5.744   4.793   0.278  1.2785  0.5047  2.0463
  103EMI    C1' 1947   5.597   4.899  -0.148 -0.2361  0.6652 -0.7462
  103EMI    H1' 1948   5.611   4.991  -0.204  1.5216 -1.3650 -0.1582
  103EMI    H1' 1949   5.640   4.830  -0.213 -1.4847  0.7601 -2.9735
  103EMI    H1' 1950   5.490   4.877  -0.131 -2.0719 -1.0269  0.6556
  103EMI    C1" 1951   5.834   5.049   0.284  0.2181 -0.1716  0.7016
  103EMI    H1" 1952   5.914   5.112   0.244 -1.4676 -0.5145  1.8392
  103EMI    H1" 1953   5.874   4.984   0.366  1.8702  1.6007 -1.5734
  103EMI    C2" 1954   5.732   5.145   0.356 -0.5213 -0.0079  0.2208
  103EMI    H2" 1955   5.731   5.243   0.308 -2.6431  0.0657 -1.3425
  103EMI    H2" 1956   5.628   5.106   0.371 -0.6077  0.2179 -0.8166
  103EMI    H2" 1957   5.759   5.165   0.459 -1.2112  0.9126  0.9024
  104EMI     N1 1958   5.634   3.575   1.197  0.2613 -0.2656 -0.4106
  104EMI     C2 1959   5.740   3.504   1.162  0.4168  0.8918 -0.9417
  104EMI     N3 1960   5.823   3.510   1.268  0.6018 -0.6755 -0.3492
  104EMI     C4 1961   5.757   3.557   1.372 -0.3573 -0.5100  0.0565
  104EMI     C5 1962   5.638   3.608   1.333  0.3199  0.5392  0.4161
  104EMI     H2 1963   5.768   3.468   1.065 -2.0322 -1.5125 -0.7699
  104EMI     H4 1964   5.798   3.558   1.470  2.0191 -1.0711 -0.0041
  104EMI     H5 1965   5.562   3.655   1.396 -1.4286  1.1230 -2.2613
  104EMI    C1' 1966   5.964   3.469   1.265  0.3808  0.5320 -0.0252
  104EMI    H1' 1967   6.007   3.413   1.351  2.0646 -2.5842  0.3070
  104EMI    H1' 1968   5.981   3.396   1.184  0.1473  2.0677  0.0712
  104EMI    H1' 1969   6.034   3.555   1.241 -0.0151 -3.4983  1.2683
  104EMI    C1" 1970   5.515   3.594   1.120  0.1255 -0.4090 -0.0358
  104EMI    H1" 1971   5.452   3.672   1.164  1.2769  0.5378  2.3840
  104EMI    H1" 1972   5.459   3.504   1.127  2.7520  0.1688 -0.9152
  104EMI    C2" 1973   5.558   3.627   0.979 -0.0325  0.4196 -0.3379
  104EMI    H2" 1974   5.599   3.725   0.983 -0.1879 -3.0930  0.9594
  104EMI    H2" 1975   5.644   3.573   0.931  0.7805 -0.0806  0.2476
  104EMI    H2" 1976   5.464   3.623   0.923  1.5367  0.2536  2.7832
  105EMI     N1 1977   3.602   6.678   5.614 -0.0125 -0.2966  0.6479
  105EMI     C2 1978   3.576   6.751   5.508  0.0462  0.4968  0.1170
  105EMI     N3 1979   3.687   6.793   5.444  0.6019 -0.3151  0.4235
  105EMI     C4 1980   3.789   6.744   5.522  0.8620  0.7576 -0.2447
  105EMI     C5 1981   3.738   6.672   5.626  0.6472  0.3493  0.3004
  105EMI     H2 1982   3.481   6.759   5.461 -1.2351 -0.1548 -0.4321
  105EMI     H4 1983   3.896   6.766   5.519  1.2042 -1.9909  2.0570
  105EMI     H5 1984   3.793   6.616   5.701 -2.9789 -1.2971  0.9196
  105EMI    C1' 1985   3.708   6.868   5.320  0.3236 -0.5405  0.2752
  105EMI    H1' 1986   3.683   6.971   5.342  0.4240 -1.8671  0.9623
  105EMI    H1' 1987   3.818   6.866   5.295  0.0648  1.3180  1.0732
  105EMI    H1' 1988   3.638   6.841   5.240  1.2766 -0.9795  1.0133
  105EMI    C1" 1989   3.513   6.602   5.707  0.4135 -0.0380 -0.6248
  105EMI    H1" 1990   3.567   6.510   5.748 -1.9492 -3.4905 -0.3255
  105EMI    H1" 1991   3.422   6.560   5.656 -0.7574  1.2276 -2.0559
  105EMI    C2" 1992   3.468   6.674   5.832  0.2042  0.7451  0.1951
  105EMI    H2" 1993   3.430   6.590   5.902 -1.4364 -0.4950  1.4669
  105EMI    H2" 1994   3.538   6.724   5.887  0.8239  0.4404 -0.4511
  105EMI    H2" 1995   3.374   6.729   5.817 -0.8206 -0.9314  0.2598
  106EMI     N1 1996   4.336   4.270   3.909 -0.0448  0.0071  0.1697
  106EMI     C2 1997   4.360   4.140   3.874  0.0939  0.6899  0.0578
  106EMI     N3 1998   4.447   4.083   3.956  0.0558 -0.1024 -0.7597
  106EMI     C4 1999   4.475   4.178   4.056 -0.3230 -0.9354 -0.1416
  106EMI     C5 2000   4.405   4.294   4.025 -0.0992 -0.3591  0.1206
  106EMI     H2 2001   4.315   4.086   3.795  0.3776 -0.8359  2.1778
  106EMI     H4 2002   4.524   4.166   4.155 -0.5176  1.6141  1.1481
  106EMI     H5 2003   4.395   4.387   4.087  0.0781 -0.3037  2.4356
  106EMI    C1' 2004   4.498   3.937   3.953  0.0318  0.1328 -0.3293
  106EMI    H1' 2005   4.594   3.944   4.003 -1.6218  1.2547 -0.7671
  106EMI    H1' 2006   4.431   3.880   4.016 -1.3010  2.5381  1.2044
  106EMI    H1' 2007   4.507   3.902   3.853 -0.5595 -0.4075 -1.3435
  106EMI    C1" 2008   4.255   4.371   3.844 -0.4670 -0.9923 -0.3350
  106EMI    H1" 2009   4.234   4.345   3.739  1.0485  3.6661  0.7470
  106EMI    H1" 2010   4.307   4.466   3.855 -2.2475 -2.3028 -0.7247
  106EMI    C2" 2011   4.119   4.390   3.904 -0.8299 -0.1612 -0.1097
  106EMI    H2" 2012   4.144   4.424   4.008 -0.4632  1.1190  0.5139
  106EMI    H2" 2013   4.071   4.469   3.846  2.7695 -0.1650  0.6071
  106EMI    H2" 2014   4.043   4.309   3.905 -3.7029 -0.3041 -0.4302
  107EMI     N1 2015   0.618   3.929   4.534 -1.0994 -0.4592  0.4399
  107EMI     C2 2016   0.623   4.046   4.464  0.9172  0.5807 -0.5842
  107EMI     N3 2017   0.724   4.124   4.506 -0.6844 -0.1601 -0.4248
  107EMI     C4 2018   0.778   4.061   4.607 -0.2609  0.4668 -1.2832
  107EMI     C5 2019   0.716   3.943   4.634  0.2278  0.4818 -0.5870
  107EMI     H2 2020   0.555   4.057   4.384 -1.4831 -0.5926  2.4868
  107EMI     H4 2021   0.854   4.101   4.672 -0.9549 -1.2104 -0.0789
  107EMI     H5 2022   0.729   3.873   4.722 -1.2148 -2.4597 -0.4751
  107EMI    C1' 2023   0.776   4.254   4.463 -0.5246  0.1305 -0.6520
  107EMI    H1' 2024   0.696   4.321   4.440  2.0228 -1.6289 -0.1544
  107EMI    H1' 2025   0.826   4.293   4.556 -3.4170 -0.8069 -1.9545
  107EMI    H1' 2026   0.848   4.239   4.373  0.5180 -1.0366  0.0987
  107EMI    C1" 2027   0.528   3.814   4.511  0.3573 -0.4721  0.2479
  107EMI    H1" 2028   0.492   3.823   4.411 -3.2639  0.4872 -3.2232
  107EMI    H1" 2029   0.441   3.819   4.582 -1.1979 -1.3879  0.0313
  107EMI    C2" 2030   0.597   3.686   4.537  0.0499 -1.0283 -0.5836
  107EMI    H2" 2031   0.691   3.695   4.485 -0.6437 -0.6281 -2.6744
  107EMI    H2" 2032   0.611   3.683   4.644  2.1993  1.7382  0.2283
  107EMI    H2" 2033   0.545   3.594   4.508 -0.8934  0.5030  0.5013
  108EMI     N1 2034   6.694   4.722   2.747 -0.4517 -0.1277 -0.0118
  108EMI     C2 2035   6.667   4.674   2.620 -0.1362 -0.2250  0.8895
  108EMI     N3 2036   6.735   4.560   2.612 -0.4198 -0.0520  0.8507
  108EMI     C4 2037   6.793   4.521   2.728 -0.3361 -0.5388  0.1260
  108EMI     C5 2038   6.781   4.628   2.809  0.3203  0.6155 -0.6552
  108EMI     H2 2039   6.621   4.725   2.539 -1.0200 -1.2967 -1.1039
  108EMI     H4 2040   6.853   4.433   2.752 -0.9402 -2.1114  0.1054
  108EMI     H5 2041   6.821   4.648   2.913  0.4092 -0.7218  2.4206
  108EMI    C1' 2042   6.736   4.468   2.492 -0.1273  0.0310  0.7076
  108EMI    H1' 2043   6.764   4.523   2.396 -2.3279  0.6631  0.9944
  108EMI    H1' 2044   6.791   4.373   2.514  1.5943 -0.2385 -0.6868
  108EMI    H1' 2045   6.633   4.439   2.479 -0.3642  1.8726  1.8788
  108EMI    C1" 2046   6.647   4.842   2.814 -0.6588 -0.4224 -0.5848
  108EMI    H1" 2047   6.556   4.872   2.764  0.4962 -1.6513 -0.5507
  108EMI    H1" 2048   6.724   4.918   2.797 -2.2918  0.3282  2.7535
  108EMI    C2" 2049   6.623   4.820   2.968  0.7590  0.2060  0.5312
  108EMI    H2" 2050   6.612   4.916   3.015  0.0982 -1.0219 -3.0285
  108EMI    H2" 2051   6.520   4.786   2.978 -0.1964  1.1807  2.3290
  108EMI    H2" 2052   6.699   4.760   3.019 -0.1672 -0.9504  1.8709
  109EMI     N1 2053   1.808   5.512   0.959 -0.5135  0.7379 -0.6530
  109EMI     C2 2054   1.929   5.532   0.898 -0.2212 -0.6659 -0.2851
  109EMI     N3 2055   1.999   5.615   0.979  0.2721 -0.1973  0.6298
  109EMI     C4 2056   1.923   5.651   1.090  0.1527 -0.5747  0.8458
  109EMI     C5 2057   1.806   5.589   1.075 -0.0980 -0.4788  0.2241
  109EMI     H2 2058   1.956   5.497   0.796  1.1089 -2.2211 -0.6082
  109EMI     H4 2059   1.958   5.703   1.182  0.6668  0.2603  2.1597
  109EMI     H5 2060   1.737   5.579   1.155 -2.3711 -1.9135 -0.5062
  109EMI    C1' 2061   2.126   5.686   0.968  0.0727  0.1311 -0.8905
  109EMI    H1' 2062   2.194   5.617   0.919  1.4407  0.9118 -0.5624
  109EMI    H1' 2063   2.121   5.770   0.895 -1.7691 -1.9322 -0.3230
  109EMI    H1' 2064   2.159   5.733   1.064  1.6165  0.0649  1.5718
  109EMI    C1" 2065   1.680   5.444   0.916 -0.3663  1.2466  0.7041
  109EMI    H1" 2066   1.640   5.484   0.824 -2.6157 -1.1383 -1.1936
  109EMI    H1" 2067   1.602   5.460   0.990  0.0224  0.5399  1.3421
  109EMI    C2" 2068   1.683   5.291   0.902 -0.4461 -1.4312 -0.2347
  109EMI    H2" 2069   1.580   5.262   0.906  1.9742 -0.7146  1.4333
  109EMI    H2" 2070   1.729   5.277   0.806  0.7823 -0.5883 -1.7716
  109EMI    H2" 2071   1.738   5.250   0.982 -0.2044  1.8936  0.0324
  110EMI     N1 2072   6.718   6.447   2.691 -0.1240 -0.0574  0.1728
  110EMI     C2 2073   6.607   6.508   2.732 -0.1384 -0.2366 -0.4519
  110EMI     N3 2074   6.636   6.588   2.836 -0.2298  0.5062 -0.3077
  110EMI     C4 2075   6.772   6.572   2.864  0.4394 -0.5337 -0.5448
  110EMI     C5 2076   6.824   6.489   2.773 -0.4345  0.0742 -0.1361
  110EMI     H2 2077   6.506   6.491   2.678 -1.8856 -1.0992 -1.5356
  110EMI     H4 2078   6.828   6.637   2.928  1.4377  1.0542  2.3815
  110EMI     H5 2079   6.928   6.463   2.769  0.1398  0.0834 -1.2624
  110EMI    C1' 2080   6.553   6.678   2.911 -1.0642  0.2815 -0.2115
  110EMI    H1' 2081   6.577   6.672   3.013  1.0974 -0.2677 -1.2765
  110EMI    H1' 2082   6.584   6.778   2.881  2.1751  1.1621  1.0046
  110EMI    H1' 2083   6.447   6.655   2.887  1.8874 -0.8826 -0.2479
  110EMI    C1" 2084   6.726   6.358   2.581 -1.0295 -0.2035 -0.1330
  110EMI    H1" 2085   6.820   6.298   2.603 -0.8724 -1.6273  2.8830
  110EMI    H1" 2086   6.732   6.413   2.485 -1.0044 -0.8636  0.3179
  110EMI    C2" 2087   6.612   6.257   2.581  0.5646 -0.5458  0.2117
  110EMI    H2" 2088   6.520   6.318   2.565  1.1706  0.6669 -2.0584
  110EMI    H2" 2089   6.640   6.197   2.494  0.2055 -0.0698 -2.4136
  110EMI    H2" 2090   6.605   6.201   2.675 -2.2368 -1.2774  1.6327
  111EMI     N1 2091   2.099   3.924   0.268  0.2324  0.5702  0.3966
  111EMI     C2 2092   2.077   3.978   0.149  0.3212 -0.6960 -0.4028
  111EMI     N3 2093   1.955   4.036   0.147 -0.0124 -0.8757 -0.0241
  111EMI     C4 2094   1.902   4.022   0.276 -0.1987 -0.1300 -0.0757
  111EMI     C5 2095   1.983   3.948   0.341 -0.2348  0.3930  0.5301
  111EMI     H2 2096   2.128   3.957   0.058  1.1327 -3.0032 -0.5708
  111EMI     H4 2097   1.801   4.049   0.308 -0.1424  0.0510 -0.2436
  111EMI     H5 2098   1.951   3.908   0.439 -0.9437 -0.2362 -2.0502
  111EMI    C1' 2099   1.875   4.114   0.048 -0.5154  0.5642 -0.5783
  111EMI    H1' 2100   1.832   4.053  -0.035 -0.6739 -1.1872 -1.5680
  111EMI    H1' 2101   1.791   4.158   0.097  0.6020  0.7642  0.0506
  111EMI    H1' 2102   1.932   4.204   0.018  1.6847 -1.4058  2.1936
  111EMI    C1" 2103   2.213   3.852   0.324 -0.7018 -0.2644 -0.6843
  111EMI    H1" 2104   2.219   3.890   0.423  2.0424 -0.6832  2.8279
  111EMI    H1" 2105   2.297   3.895   0.278 -0.0328  2.8720  1.9116
  111EMI    C2" 2106   2.209   3.700   0.325  0.3989  0.2427  0.3351
  111EMI    H2" 2107   2.307   3.666   0.351 -2.6740  0.3622  1.1421
  111EMI    H2" 2108   2.136   3.653   0.392 -0.3385  1.0076 -3.3091
  111EMI    H2" 2109   2.188   3.670   0.231  1.8902  1.0034  2.3249
  112EMI     N1 2110   6.769   3.931   4.780  0.1552 -0.4511 -0.3861
  112EMI     C2 2111   6.658   3.972   4.716  0.1229 -0.0408  0.0549
  112EMI     N3 2112   6.571   4.026   4.804  0.4473 -0.0852  0.4229
  112EMI     C4 2113   6.613   3.989   4.927  0.7265  0.0709  0.2813
  112EMI     C5 2114   6.735   3.938   4.917  0.2908 -0.0696  0.6232
  112EMI     H2 2115   6.645   3.972   4.611 -2.1373 -1.1720  2.0309
  112EMI     H4 2116   6.555   4.014   5.013  1.7505 -0.9721  0.8113
  112EMI     H5 2117   6.804   3.905   4.999 -0.2963 -0.5936 -1.5562
  112EMI    C1' 2118   6.435   4.071   4.776 -0.6017  0.9647 -0.1725
  112EMI    H1' 2119   6.368   4.037   4.846  0.2918 -2.7912  2.7864
  112EMI    H1' 2120   6.437   4.179   4.769  0.8728 -0.1835  0.3552
  112EMI    H1' 2121   6.408   4.030   4.678 -0.1492  0.4768  2.1601
  112EMI    C1" 2122   6.902   3.881   4.728  0.4534  0.3876  0.7683
  112EMI    H1" 2123   6.908   3.770   4.721  2.3171  1.5106  1.1230
  112EMI    H1" 2124   6.978   3.904   4.801 -1.7353  0.5580  1.6647
  112EMI    C2" 2125   6.955   3.931   4.598 -0.6127 -0.2665 -0.1348
  112EMI    H2" 2126   7.055   3.897   4.586 -1.2834  0.1752  1.3521
  112EMI    H2" 2127   6.893   3.888   4.518 -0.1846  0.0360 -1.5253
  112EMI    H2" 2128   6.951   4.041   4.590  2.8937 -1.1532  0.9427
  113EMI     N1 2129   0.055   1.264   5.027  0.0284 -1.0799 -0.2440
  113EMI     C2 2130   0.137   1.263   5.133 -0.6285 -0.0151 -0.1411
  113EMI     N3 2131   0.244   1.344   5.108 -0.3907  0.2710  0.2397
  113EMI     C4 2132   0.233   1.405   4.984 -0.0891 -0.0974 -0.9898
  113EMI     C5 2133   0.110   1.358   4.934 -0.0352 -0.1347 -0.2464
  113EMI     H2 2134   0.123   1.200   5.219  1.3355  0.5692  0.9860
  113EMI     H4 2135   0.312   1.476   4.956  1.0761 -4.3514 -2.9672
  113EMI     H5 2136   0.076   1.382   4.834  1.0367  0.9127 -0.8107
  113EMI    C1' 2137   0.362   1.368   5.191 -0.5329  0.9332  0.4772
  113EMI    H1' 2138   0.329   1.362   5.292  1.1455 -1.2525  3.0228
  113EMI    H1' 2139   0.446   1.304   5.182  2.0607  2.0664  0.2408
  113EMI    H1' 2140   0.405   1.468   5.170 -0.4648  2.1378  0.8705
  113EMI    C1" 2141  -0.084   1.209   5.007 -0.3919 -0.5847 -0.2764
  113EMI    H1" 2142  -0.071   1.119   4.957 -0.7970  3.5948 -0.9194
  113EMI    H1" 2143  -0.143   1.273   4.943  0.0932 -3.2245 -0.9315
  113EMI    C2" 2144  -0.156   1.186   5.138 -0.1296  0.2285 -0.1649
  113EMI    H2" 2145  -0.099   1.152   5.226 -1.2005 -0.0537  1.3278
  113EMI    H2" 2146  -0.198   1.289   5.172 -0.3232 -0.1244  0.3616
  113EMI    H2" 2147  -0.236   1.121   5.124 -1.5740  0.5498  0.6172
  114EMI     N1 2148   1.324   3.098   2.494  0.2077 -0.1762 -0.1763
  114EMI     C2 2149   1.260   3.213   2.478  0.5466  0.3738  0.1421
  114EMI     N3 2150   1.348   3.313   2.489 -0.7060 -0.1298 -0.5892
  114EMI     C4 2151   1.474   3.255   2.493 -0.0519 -0.4405  0.5209
  114EMI     C5 2152   1.458   3.121   2.504 -0.0659 -0.1617  0.0982
  114EMI     H2 2153   1.157   3.221   2.447 -1.1112  0.8310 -1.0686
  114EMI     H4 2154   1.568   3.298   2.485 -1.5223  0.2031 -0.2279
  114EMI     H5 2155   1.541   3.051   2.512  1.2396 -0.4782 -1.7805
  114EMI    C1' 2156   1.347   3.452   2.466  0.0130 -0.0481  0.1763
  114EMI    H1' 2157   1.324   3.463   2.361 -1.2561  0.0660 -0.4662
  114EMI    H1' 2158   1.289   3.505   2.538  0.4520  1.0731 -2.4968
  114EMI    H1' 2159   1.442   3.498   2.467 -1.4771 -0.8050  0.9988
  114EMI    C1" 2160   1.268   2.959   2.497  0.3158 -0.0019 -0.9000
  114EMI    H1" 2161   1.345   2.887   2.522  1.3005 -1.7825  2.5951
  114EMI    H1" 2162   1.232   2.932   2.397 -0.3213  1.6210 -0.9644
  114EMI    C2" 2163   1.158   2.956   2.605  0.8011  0.3037  0.1988
  114EMI    H2" 2164   1.195   2.980   2.701  1.6421 -0.6085 -0.9750
  114EMI    H2" 2165   1.075   3.009   2.567  0.2181 -1.1842 -1.2775
  114EMI    H2" 2166   1.135   2.855   2.628  1.8107 -1.4925 -1.8184
  115EMI     N1 2167   2.214   3.723   3.368 -0.3228  0.4695 -0.8789
  115EMI     C2 2168   2.199   3.634   3.474  0.0299  0.6108 -0.6203
  115EMI     N3 2169   2.181   3.697   3.589  0.2608  0.2329  0.2566
  115EMI     C4 2170   2.180   3.831   3.562  0.0139 -0.0186  0.0029
  115EMI     C5 2171   2.199   3.847   3.426 -0.2419 -0.3774 -0.3050
  115EMI     H2 2172   2.205   3.525   3.474 -0.4606 -3.0714 -0.0490
  115EMI     H4 2173   2.154   3.906   3.631  1.5118 -1.0817  1.4087
  115EMI     H5 2174   2.210   3.938   3.378 -1.7938 -1.9864 -0.1828
  115EMI    C1' 2175   2.149   3.636   3.727 -0.4446 -0.0870  0.0438
  115EMI    H1' 2176   2.201   3.683   3.812  0.4252  0.2001  2.4011
  115EMI    H1' 2177   2.044   3.638   3.740  0.0566 -2.9308  0.2196
  115EMI    H1' 2178   2.165   3.530   3.726 -1.0578  0.1393 -2.9544
  115EMI    C1" 2179   2.218   3.707   3.223 -0.1208 -0.5013  0.3594
  115EMI    H1" 2180   2.278   3.617   3.201  0.2016  1.4556  2.5976
  115EMI    H1" 2181   2.251   3.797   3.170 -2.5680  0.2924 -0.2582
  115EMI    C2" 2182   2.080   3.679   3.177 -0.1415 -0.3442  0.1585
  115EMI    H2" 2183   2.047   3.572   3.198 -0.6830 -1.3634 -0.0439
  115EMI    H2" 2184   2.012   3.751   3.223  0.3806 -1.1052  1.4470
  115EMI    H2" 2185   2.085   3.686   3.068 -0.3114 -2.0172 -0.6621
  116EMI     N1 2186   4.750   1.757   1.753  0.1591 -0.2636 -0.2350
  116EMI     C2 2187   4.803   1.732   1.626 -0.3309 -0.2347 -1.0123
  116EMI     N3 2188   4.931   1.730   1.629 -0.0134 -0.1554  0.5007
  116EMI     C4 2189   4.974   1.748   1.761  0.0269  0.2124  0.7090
  116EMI     C5 2190   4.866   1.778   1.830 -0.2226  0.5087 -0.6817
  116EMI     H2 2191   4.750   1.708   1.530 -0.7490 -0.5221  0.4018
  116EMI     H4 2192   5.077   1.752   1.801  0.9639 -3.5231  3.0424
  116EMI     H5 2193   4.871   1.811   1.935  3.4152 -0.9359 -2.4449
  116EMI    C1' 2194   5.024   1.724   1.513 -0.8013  0.0332 -0.1441
  116EMI    H1' 2195   4.979   1.757   1.420  0.0030  0.1669  0.2984
  116EMI    H1' 2196   5.101   1.794   1.531 -4.0652 -0.9603  1.1291
  116EMI    H1' 2197   5.064   1.626   1.518 -0.5180  0.4095  0.3880
  116EMI    C1" 2198   4.611   1.776   1.799 -0.9377 -0.4798 -0.2732
  116EMI    H1" 2199   4.554   1.857   1.752  0.3673 -1.0092  1.0288
  116EMI    H1" 2200   4.612   1.789   1.908  1.2400  1.2689  0.2794
  116EMI    C2" 2201   4.528   1.650   1.782 -0.2569 -0.4585  0.3248
  116EMI    H2" 2202   4.599   1.564   1.777  2.7481  2.9027  2.6800
  116EMI    H2" 2203   4.454   1.638   1.860 -0.5594 -0.9691  1.8224
  116EMI    H2" 2204   4.465   1.662   1.689 -2.2254 -2.4912  3.1806
  117EMI     N1 2205   3.194   2.269   0.692  0.4587  0.1857  0.0513
  117EMI     C2 2206   3.291   2.176   0.673  0.4308  0.6710  0.4797
  117EMI     N3 2207   3.244   2.073   0.606  0.6634 -0.2473  0.2205
  117EMI     C4 2208   3.108   2.099   0.589 -0.4078  0.8097 -0.2983
  117EMI     C5 2209   3.072   2.220   0.644 -0.4822  0.4487  0.1340
  117EMI     H2 2210   3.389   2.187   0.712 -1.1373 -2.7713  1.0886
  117EMI     H4 2211   3.031   2.041   0.543  0.5043 -0.4203 -0.8604
  117EMI     H5 2212   2.974   2.267   0.652 -0.5001 -0.3174 -2.4526
  117EMI    C1' 2213   3.305   1.943   0.574  0.3976 -0.3388 -0.6207
  117EMI    H1' 2214   3.277   1.927   0.473  0.1297  2.0392 -3.6360
  117EMI    H1' 2215   3.411   1.950   0.591 -2.0564  0.1255 -0.9300
  117EMI    H1' 2216   3.271   1.861   0.627  0.8083 -2.8812 -0.4757
  117EMI    C1" 2217   3.200   2.397   0.765  0.1969 -0.7195 -0.1474
  117EMI    H1" 2218   3.095   2.423   0.773 -0.0926 -0.3391  0.9608
  117EMI    H1" 2219   3.249   2.475   0.708  2.1423  0.5634  2.8136
  117EMI    C2" 2220   3.260   2.369   0.905  0.2011 -0.0213 -0.8953
  117EMI    H2" 2221   3.200   2.293   0.947  1.5505  2.9668 -0.1044
  117EMI    H2" 2222   3.366   2.352   0.889 -1.7278 -0.1653 -0.8219
  117EMI    H2" 2223   3.249   2.457   0.969  2.0543 -1.4014  3.2497
  118EMI     N1 2224   3.775   4.239   2.225 -0.0534 -0.4557 -0.4353
  118EMI     C2 2225   3.733   4.248   2.098 -0.4679 -0.8559  0.4800
  118EMI     N3 2226   3.624   4.181   2.080  0.6208  0.1288  0.2798
  118EMI     C4 2227   3.583   4.140   2.203 -0.1697 -0.2560 -0.3148
  118EMI     C5 2228   3.677   4.169   2.292  0.2522 -0.3434 -0.6469
  118EMI     H2 2229   3.787   4.286   2.011  0.3109  0.4474  0.0131
  118EMI     H4 2230   3.488   4.100   2.226  2.2004 -1.1310  1.0888
  118EMI     H5 2231   3.685   4.159   2.401 -0.5090 -1.2828 -1.7703
  118EMI    C1' 2232   3.544   4.164   1.965 -0.3063  0.6911 -0.6380
  118EMI    H1' 2233   3.482   4.075   1.991 -0.4071 -3.5595 -1.4724
  118EMI    H1' 2234   3.477   4.258   1.952 -0.3101  1.5820 -0.2856
  118EMI    H1' 2235   3.615   4.160   1.879  1.8267  0.4065 -0.4519
  118EMI    C1" 2236   3.901   4.270   2.293  0.1666 -0.8323 -0.1557
  118EMI    H1" 2237   3.965   4.336   2.230  1.4636 -1.3420  0.2816
  118EMI    H1" 2238   3.951   4.177   2.313 -3.6024 -2.1396 -0.0954
  118EMI    C2" 2239   3.867   4.354   2.421  0.0480  0.5259 -0.5605
  118EMI    H2" 2240   3.969   4.358   2.469  1.9561  1.3902  3.5149
  118EMI    H2" 2241   3.822   4.444   2.387  2.9960  0.1189  0.4031
  118EMI    H2" 2242   3.798   4.296   2.482  3.0368 -0.2462 -0.6085
  119EMI     N1 2243   3.461   1.356   1.460 -0.3623  0.1026 -0.8219
  119EMI     C2 2244   3.531   1.247   1.439  0.2843  0.4745 -0.3324
  119EMI     N3 2245   3.629   1.272   1.345  0.5231  0.2062  0.3786
  119EMI     C4 2246   3.619   1.407   1.317  0.2720  0.0471  0.2489
  119EMI     C5 2247   3.507   1.458   1.380 -0.2261 -0.2914 -0.1207
  119EMI     H2 2248   3.506   1.151   1.483 -0.8614  0.1859 -0.1591
  119EMI     H4 2249   3.685   1.466   1.263 -0.2015 -0.4031  1.2904
  119EMI     H5 2250   3.481   1.563   1.390 -0.1781 -0.2204 -0.7706
  119EMI    C1' 2251   3.737   1.183   1.300  0.2216  0.4214 -0.2059
  119EMI    H1' 2252   3.784   1.123   1.376  2.4265  0.4060  0.6561
  119EMI    H1' 2253   3.700   1.119   1.224 -0.7405 -1.0864  3.8697
  119EMI    H1' 2254   3.810   1.240   1.253  0.2090 -1.8301  0.5259
  119EMI    C1" 2255   3.344   1.364   1.546  0.8806  0.1242  0.3530
  119EMI    H1" 2256   3.252   1.357   1.494  2.2543 -1.1513  2.8623
  119EMI    H1" 2257   3.351   1.462   1.599  1.6070  0.8237  0.0757
  119EMI    C2" 2258   3.324   1.256   1.654 -0.1005  0.6715  1.0066
  119EMI    H2" 2259   3.417   1.259   1.707 -1.3813  0.5074  1.5902
  119EMI    H2" 2260   3.246   1.290   1.725 -1.0781 -0.4984 -1.0483
  119EMI    H2" 2261   3.300   1.149   1.619 -1.2615 -1.2111  2.2936
  120EMI     N1 2262   4.304   3.034   6.485  1.0385 -1.2738 -0.3390
  120EMI     C2 2263   4.416   3.102   6.526 -0.4721  0.1765 -0.1657
  120EMI     N3 2264   4.527   3.022   6.501  0.8940 -0.1310 -0.5140
  120EMI     C4 2265   4.484   2.907   6.446 -0.5252  0.4327 -0.1726
  120EMI     C5 2266   4.353   2.914   6.430  0.0721 -0.6731 -0.3366
  120EMI     H2 2267   4.428   3.197   6.567 -0.4268 -0.6061 -2.3616
  120EMI     H4 2268   4.549   2.826   6.426  2.0627 -0.1079 -0.6250
  120EMI     H5 2269   4.291   2.828   6.398 -1.2641 -0.2310  1.0865
  120EMI    C1' 2270   4.663   3.045   6.550  0.4625  0.6386 -0.3188
  120EMI    H1' 2271   4.716   3.098   6.474 -1.5673  0.1657 -0.1344
  120EMI    H1' 2272   4.663   3.103   6.646  0.2629  2.0505 -1.0440
  120EMI    H1' 2273   4.714   2.948   6.572  2.1648  0.0792 -0.9469
  120EMI    C1" 2274   4.159   3.066   6.497  0.4072 -0.1616 -0.8168
  120EMI    H1" 2275   4.116   3.005   6.577  0.8417 -1.1783 -0.4006
  120EMI    H1" 2276   4.121   3.041   6.405 -0.2486  2.0822 -1.4419
  120EMI    C2" 2277   4.142   3.216   6.514  0.6134  0.0139  0.5714
  120EMI    H2" 2278   4.193   3.232   6.608  3.3458 -0.1244  1.8210
  120EMI    H2" 2279   4.199   3.253   6.428 -0.5705  0.3107 -1.2529
  120EMI    H2" 2280   4.036   3.240   6.509  2.9372 -1.9892  0.7790
  121EMI     N1 2281   5.747   1.637   4.077  0.0522  0.7784 -0.6202
  121EMI     C2 2282   5.700   1.534   4.004  0.4453 -0.2104  0.1749
  121EMI     N3 2283   5.589   1.566   3.936  0.0858 -0.2829 -0.6229
  121EMI     C4 2284   5.558   1.699   3.968  0.5568 -0.4373  0.3568
  121EMI     C5 2285   5.658   1.741   4.048  0.3475  0.3509  0.3568
  121EMI     H2 2286   5.739   1.438   4.000 -0.8247  0.6203 -1.8953
  121EMI     H4 2287   5.472   1.751   3.937  0.3092 -0.4308 -1.8581
  121EMI     H5 2288   5.666   1.840   4.098  0.8513  0.9775  0.5107
  121EMI    C1' 2289   5.503   1.499   3.840  0.0355  0.0085 -0.4832
  121EMI    H1' 2290   5.555   1.408   3.810  0.3186 -2.3130  1.5668
  121EMI    H1' 2291   5.401   1.468   3.877 -1.9061  1.0292  0.1026
  121EMI    H1' 2292   5.498   1.561   3.756  0.3861 -0.1404  3.0558
  121EMI    C1" 2293   5.860   1.654   4.172 -0.6532  0.2489  0.2815
  121EMI    H1" 2294   5.906   1.755   4.161 -1.8911  3.1630 -1.4288
  121EMI    H1" 2295   5.947   1.579   4.153 -4.0621 -1.6149 -0.6735
  121EMI    C2" 2296   5.820   1.634   4.322 -0.3485 -0.5739 -0.1452
  121EMI    H2" 2297   5.905   1.632   4.385  0.5803 -0.3693 -0.2408
  121EMI    H2" 2298   5.757   1.718   4.357 -1.2380  0.0627 -0.9829
  121EMI    H2" 2299   5.763   1.544   4.338 -1.1505  1.8907 -0.2480
  122EMI     N1 2300   0.595   0.208   2.806 -0.1645  0.3304  0.4217
  122EMI     C2 2301   0.502   0.301   2.848  0.0587 -0.1151 -0.0081
  122EMI     N3 2302   0.547   0.371   2.950  0.5302  0.1263 -0.1530
  122EMI     C4 2303   0.669   0.323   2.977 -0.6525  0.7245  0.2562
  122EMI     C5 2304   0.700   0.220   2.895  0.0115 -0.0162  0.2734
  122EMI     H2 2305   0.402   0.305   2.801 -1.6266 -0.5532 -1.2379
  122EMI     H4 2306   0.727   0.372   3.053 -1.7900  1.5732 -0.7346
  122EMI     H5 2307   0.800   0.163   2.893  0.9419  0.6530  2.7039
  122EMI    C1' 2308   0.464   0.458   3.041  0.1703 -0.4949  0.1016
  122EMI    H1' 2309   0.525   0.534   3.094  1.2806 -0.6920 -1.9587
  122EMI    H1' 2310   0.381   0.503   2.981  0.6934 -3.3536 -0.8083
  122EMI    H1' 2311   0.441   0.393   3.120  0.5831  0.2925 -2.7506
  122EMI    C1" 2312   0.592   0.111   2.697  0.2507  0.2962  0.3098
  122EMI    H1" 2313   0.505   0.053   2.709 -1.2798  0.4864  3.1145
  122EMI    H1" 2314   0.680   0.050   2.685  3.3429  0.4846  0.2329
  122EMI    C2" 2315   0.586   0.189   2.559 -0.3233 -0.0678  0.1827
  122EMI    H2" 2316   0.655   0.269   2.550 -2.1215  0.0920 -1.3292
  122EMI    H2" 2317   0.593   0.116   2.480 -1.5151 -1.1036  0.1869
  122EMI    H2" 2318   0.495   0.243   2.557  0.2637  0.7884  1.7079
  123EMI     N1 2319   4.229   4.903   6.155 -0.1949  0.0763 -0.0306
  123EMI     C2 2320   4.282   5.025   6.122  0.2976 -0.1592  0.3360
  123EMI     N3 2321   4.289   5.040   5.990 -0.3979 -0.3121  0.4287
  123EMI     C4 2322   4.239   4.923   5.937 -0.4415 -0.0670  0.1704
  123EMI     C5 2323   4.198   4.840   6.036  0.3527 -0.3542  0.1368
  123EMI     H2 2324   4.315   5.105   6.189  0.1224  1.1694 -0.1276
  123EMI     H4 2325   4.246   4.902   5.835  0.6464 -0.1658  0.3351
  123EMI     H5 2326   4.148   4.741   6.027  1.3048  0.0278  2.8353
  123EMI    C1' 2327   4.340   5.152   5.910 -0.3658  0.4504  0.3728
  123EMI    H1' 2328   4.315   5.132   5.802 -0.2771 -2.2917 -0.9986
  123EMI    H1' 2329   4.288   5.237   5.952 -0.0867 -0.2013  0.7832
  123EMI    H1' 2330   4.450   5.148   5.934  3.0316  0.4249 -0.6696
  123EMI    C1" 2331   4.220   4.837   6.280  0.1355 -0.5599 -0.3075
  123EMI    H1" 2332   4.149   4.753   6.267  1.2961  1.4034 -1.2458
  123EMI    H1" 2333   4.176   4.899   6.357 -1.6951  0.2665 -1.0658
  123EMI    C2" 2334   4.367   4.797   6.326 -0.3650  0.0923 -0.3036
  123EMI    H2" 2335   4.356   4.727   6.404 -0.3122  5.7541 -3.0530
  123EMI    H2" 2336   4.417   4.745   6.241 -0.9040 -2.2784 -3.5059
  123EMI    H2" 2337   4.418   4.885   6.366  2.4162  0.0562  1.3653
  124EMI     N1 2338   4.554   6.195   3.229  0.1437  0.0969 -0.0271
  124EMI     C2 2339   4.628   6.081   3.226  0.4779  0.1703 -0.5302
  124EMI     N3 2340   4.691   6.061   3.345  0.2538 -0.0394  0.2753
  124EMI     C4 2341   4.668   6.176   3.419 -0.2936  0.2848  0.5698
  124EMI     C5 2342   4.585   6.259   3.348  0.2152  0.5860 -0.0033
  124EMI     H2 2343   4.638   6.013   3.142 -0.9042  3.6512  0.7031
  124EMI     H4 2344   4.710   6.189   3.516  0.7280 -1.5114  1.8634
  124EMI     H5 2345   4.552   6.362   3.384 -1.6637  4.0345 -0.5255
  124EMI    C1' 2346   4.777   5.952   3.385  0.0553 -0.3959  0.2677
  124EMI    H1' 2347   4.757   5.856   3.341  0.0705 -0.2820  1.0800
  124EMI    H1' 2348   4.871   5.982   3.348  4.4673  1.7503 -0.9807
  124EMI    H1' 2349   4.787   5.948   3.494 -0.0769 -0.3416 -0.2001
  124EMI    C1" 2350   4.478   6.271   3.134 -0.3126  0.1914  0.5895
  124EMI    H1" 2351   4.541   6.312   3.045  0.9623 -0.2454 -2.3953
  124EMI    H1" 2352   4.438   6.358   3.193  0.1714  1.9331  0.5813
  124EMI    C2" 2353   4.362   6.190   3.072 -0.2882 -0.4366  0.2473
  124EMI    H2" 2354   4.261   6.240   3.070  0.1032 -0.8421 -0.4148
  124EMI    H2" 2355   4.394   6.163   2.969  2.8318 -2.0293  0.2280
  124EMI    H2" 2356   4.360   6.101   3.123  1.3028  4.8636 -1.1509
  125EMI     N1 2357   1.137   1.510   1.531 -0.2822 -0.1052 -0.0315
  125EMI     C2 2358   1.191   1.443   1.634  0.7192  0.6670  0.2752
  125EMI     N3 2359   1.174   1.512   1.748 -0.1873 -0.3718 -0.2124
  125EMI     C4 2360   1.096   1.618   1.723  0.1967 -0.0079 -0.4205
  125EMI     C5 2361   1.072   1.618   1.590 -0.0438 -0.6805 -0.0993
  125EMI     H2 2362   1.245   1.350   1.628  2.0246  2.2772  1.4943
  125EMI     H4 2363   1.061   1.691   1.790  0.0313 -0.1498 -2.1939
  125EMI     H5 2364   1.018   1.696   1.534  0.9588 -2.4519  0.2551
  125EMI    C1' 2365   1.236   1.494   1.877  0.2040  0.1903 -0.3444
  125EMI    H1' 2366   1.189   1.411   1.929  0.5524 -0.1715 -1.9302
  125EMI    H1' 2367   1.337   1.471   1.861  0.4452  1.2406  0.9662
  125EMI    H1' 2368   1.237   1.588   1.935 -0.2331 -2.3685 -0.1782
  125EMI    C1" 2369   1.127   1.472   1.387 -0.4072  0.5824 -0.0817
  125EMI    H1" 2370   1.219   1.414   1.363 -1.0052 -0.3098  1.5568
  125EMI    H1" 2371   1.126   1.558   1.320 -2.8002  3.6078 -0.8740
  125EMI    C2" 2372   1.015   1.375   1.356 -0.0978  0.7096 -0.1237
  125EMI    H2" 2373   1.035   1.278   1.411 -2.5224 -0.5135  3.4465
  125EMI    H2" 2374   0.922   1.415   1.393  2.6658  3.1720  0.6436
  125EMI    H2" 2375   1.014   1.360   1.244 -2.9578  0.8692  1.3664
  126EMI     N1 2376   5.207   4.033   2.842 -0.5302  0.0941  0.5545
  126EMI     C2 2377   5.245   3.971   2.956  0.6521 -0.3713 -0.0303
  126EMI     N3 2378   5.142   3.912   3.012 -0.8970 -0.4630 -1.5148
  126EMI     C4 2379   5.028   3.934   2.939  0.4571  0.0382 -0.4145
  126EMI     C5 2380   5.073   4.008   2.828 -0.2909  0.1063  0.0151
  126EMI     H2 2381   5.350   3.956   2.980 -0.4580 -1.0069 -0.4301
  126EMI     H4 2382   4.925   3.891   2.955 -1.2441  1.1389 -1.4982
  126EMI     H5 2383   5.016   4.049   2.743 -1.3266  1.8951 -1.5975
  126EMI    C1' 2384   5.134   3.853   3.146 -0.6252  1.0692 -0.1081
  126EMI    H1' 2385   5.139   3.744   3.132  0.1961 -1.3969 -0.3590
  126EMI    H1' 2386   5.209   3.881   3.216 -1.5003 -2.4327 -0.2753
  126EMI    H1' 2387   5.030   3.872   3.187 -0.2119 -0.2636 -1.9285
  126EMI    C1" 2388   5.286   4.114   2.743  0.1207  0.3100  0.2167
  126EMI    H1" 2389   5.243   4.211   2.727  2.1899  0.6704 -0.2503
  126EMI    H1" 2390   5.275   4.057   2.647  0.5196 -0.5419 -1.4249
  126EMI    C2" 2391   5.434   4.139   2.774  1.3990 -0.9274 -0.3451
  126EMI    H2" 2392   5.481   4.044   2.785 -1.4391 -4.9338  1.9902
  126EMI    H2" 2393   5.483   4.197   2.703 -1.4157  0.1179  0.4140
  126EMI    H2" 2394   5.431   4.193   2.869 -2.0114 -0.6231 -0.3092
  127EMI     N1 2395   2.305   4.497   3.499  0.2539  0.6320  0.0603
  127EMI     C2 2396   2.199   4.420   3.518  0.5493  0.6533 -0.5928
  127EMI     N3 2397   2.230   4.293   3.475 -0.4611 -0.4892 -0.1965
  127EMI     C4 2398   2.361   4.293   3.432  0.6663  0.7117  0.5852
  127EMI     C5 2399   2.402   4.425   3.432 -0.0839  1.1347  0.0716
  127EMI     H2 2400   2.110   4.447   3.574 -2.7836  1.4928 -3.0268
  127EMI     H4 2401   2.415   4.205   3.391 -2.0524 -2.2247  0.0398
  127EMI     H5 2402   2.497   4.461   3.410 -2.9102  0.9620  0.8019
  127EMI    C1' 2403   2.156   4.171   3.478 -0.3349 -0.1064  0.1338
  127EMI    H1' 2404   2.152   4.112   3.382  0.5915 -0.9476 -0.1811
  127EMI    H1' 2405   2.216   4.102   3.541  2.7820 -0.1240 -0.3927
  127EMI    H1' 2406   2.067   4.184   3.530 -1.1555 -0.3685  0.3311
  127EMI    C1" 2407   2.330   4.632   3.542 -0.4993 -0.4137  0.3692
  127EMI    H1" 2408   2.236   4.684   3.561  1.4964 -2.1746  0.9995
  127EMI    H1" 2409   2.396   4.678   3.470  0.1215 -0.8041  0.5755
  127EMI    C2" 2410   2.406   4.641   3.678  0.1833  0.1438 -0.3990
  127EMI    H2" 2411   2.499   4.585   3.669  1.1792 -0.3653  2.6553
  127EMI    H2" 2412   2.433   4.741   3.700 -0.0612 -0.2510 -2.0369
  127EMI    H2" 2413   2.345   4.600   3.760 -3.9195 -0.3446 -3.2385
  128EMI     N1 2414   3.575   2.865   1.757  0.2588 -0.0621  0.0167
  128EMI     C2 2415   3.566   2.994   1.764  0.2535 -0.5406  1.0095
  128EMI     N3 2416   3.640   3.047   1.865 -0.0786 -0.5085  0.0221
  128EMI     C4 2417   3.692   2.937   1.923  0.0222  0.9564  0.0035
  128EMI     C5 2418   3.649   2.824   1.863 -0.3325 -0.9045  0.4933
  128EMI     H2 2419   3.501   3.056   1.704 -0.2361  0.5734 -0.7716
  128EMI     H4 2420   3.764   2.930   2.000  1.8870 -1.3203 -5.0008
  128EMI     H5 2421   3.673   2.719   1.887  0.6967  0.4123  0.8377
  128EMI    C1' 2422   3.681   3.190   1.890 -0.4129  0.0457 -0.3103
  128EMI    H1' 2423   3.788   3.196   1.881  0.9741 -1.7512  0.1665
  128EMI    H1' 2424   3.627   3.257   1.833  1.5313 -0.0961 -0.0872
  128EMI    H1' 2425   3.663   3.214   1.990 -1.2427 -1.1493 -0.8308
  128EMI    C1" 2426   3.507   2.769   1.666  0.0859  0.0692 -0.0300
  128EMI    H1" 2427   3.403   2.752   1.700 -0.9625 -0.0792 -0.0637
  128EMI    H1" 2428   3.565   2.675   1.661 -0.4139  0.1051 -1.0895
  128EMI    C2" 2429   3.495   2.815   1.523 -0.1979 -0.5874 -0.5927
  128EMI    H2" 2430   3.425   2.757   1.464  0.7637  1.4096  2.0668
  128EMI    H2" 2431   3.460   2.921   1.526 -3.0258 -1.5788 -0.7186
  128EMI    H2" 2432   3.597   2.821   1.480  0.6991 -0.1946  0.9370
  129EMI     N1 2433   6.321   5.910   2.122 -0.1274  0.1432  0.1736
  129EMI     C2 2434   6.222   5.920   2.033 -0.4700  0.8929  0.4207
  129EMI     N3 2435   6.225   5.812   1.954  0.9932 -0.2618 -0.0385
  129EMI     C4 2436   6.330   5.736   1.992  0.1223  0.0394 -0.2573
  129EMI     C5 2437   6.397   5.801   2.089  0.7070 -0.1892 -0.4849
  129EMI     H2 2438   6.159   6.003   2.012  2.1823  0.0334  1.8668
  129EMI     H4 2439   6.363   5.639   1.958 -1.0991 -2.3987 -0.5439
  129EMI     H5 2440   6.480   5.760   2.143 -3.6988  1.2298 -1.8383
  129EMI    C1' 2441   6.114   5.775   1.860  0.2810 -1.0063  0.0346
  129EMI    H1' 2442   6.109   5.668   1.879 -1.5286 -0.4621  1.7998
  129EMI    H1' 2443   6.019   5.822   1.894 -2.8243 -0.6300 -0.3698
  129EMI    H1' 2444   6.138   5.797   1.756  0.4021  2.4263  0.8184
  129EMI    C1" 2445   6.367   5.999   2.234  0.5013  1.2268 -0.3984
  129EMI    H1" 2446   6.464   6.030   2.196 -1.9511  2.6203 -0.9524
  129EMI    H1" 2447   6.374   5.934   2.322 -0.7406  2.3426  2.4244
  129EMI    C2" 2448   6.271   6.108   2.256 -0.6073  0.7026 -0.1350
  129EMI    H2" 2449   6.184   6.054   2.299  1.6515 -2.0857  2.0787
  129EMI    H2" 2450   6.309   6.181   2.326 -1.2048 -1.5220  2.3418
  129EMI    H2" 2451   6.251   6.165   2.161 -0.1590  0.2891 -3.3077
  130EMI     N1 2452   0.953   3.470   2.051 -0.1800 -0.0589 -0.2776
  130EMI     C2 2453   0.826   3.450   2.092 -0.0675 -0.1500 -0.3412
  130EMI     N3 2454   0.736   3.440   1.996 -0.0897  0.1485 -0.2836
  130EMI     C4 2455   0.810   3.471   1.883  0.3797 -0.0752 -0.4152
  130EMI     C5 2456   0.943   3.484   1.914 -0.4183 -0.1097  0.4501
  130EMI     H2 2457   0.792   3.439   2.194 -0.5977 -1.6188  0.3844
  130EMI     H4 2458   0.751   3.473   1.797  1.0276 -1.6299 -1.1157
  130EMI     H5 2459   1.021   3.504   1.838  0.6168 -1.2653 -1.0427
  130EMI    C1' 2460   0.592   3.422   2.005  0.1853 -0.6640 -0.2313
  130EMI    H1' 2461   0.559   3.329   1.958  1.0610  0.2089 -0.4443
  130EMI    H1' 2462   0.555   3.440   2.110  0.5356 -0.3468 -0.1318
  130EMI    H1' 2463   0.543   3.505   1.954  2.3013  0.6108 -0.4172
  130EMI    C1" 2464   1.085   3.495   2.118  0.2568 -0.0788 -0.1237
  130EMI    H1" 2465   1.064   3.562   2.206  1.7708  1.3181  1.4294
  130EMI    H1" 2466   1.149   3.543   2.051  1.7106 -0.1971 -0.4726
  130EMI    C2" 2467   1.154   3.367   2.173  0.1051  1.0717  0.4785
  130EMI    H2" 2468   1.158   3.290   2.098 -1.4490  1.4887 -1.5704
  130EMI    H2" 2469   1.259   3.387   2.210  2.3452  1.3928  0.0338
  130EMI    H2" 2470   1.089   3.314   2.246  3.4726 -2.7044 -1.9989
  131EMI     N1 2471   4.469   4.087   3.547  0.1414  0.5168  0.6194
  131EMI     C2 2472   4.604   4.086   3.562  0.4168 -0.2982 -0.3814
  131EMI     N3 2473   4.643   3.964   3.598  0.1714  0.1383 -0.0463
  131EMI     C4 2474   4.538   3.879   3.582 -0.2584  0.0174  0.8644
  131EMI     C5 2475   4.430   3.954   3.548  0.0659 -0.7154 -0.0451
  131EMI     H2 2476   4.676   4.160   3.552  0.7610  0.5180  0.0694
  131EMI     H4 2477   4.534   3.771   3.578  0.6777 -1.3219 -1.3023
  131EMI     H5 2478   4.326   3.921   3.519 -2.5708 -0.4581  0.4205
  131EMI    C1' 2479   4.779   3.913   3.607  0.2359 -0.0380 -0.6663
  131EMI    H1' 2480   4.798   3.865   3.705 -0.9925  2.1258 -1.4304
  131EMI    H1' 2481   4.794   3.836   3.533 -3.7239  1.3088  1.5220
  131EMI    H1' 2482   4.848   3.993   3.601 -1.8057 -1.6583 -0.6969
  131EMI    C1" 2483   4.374   4.193   3.520 -0.4706 -0.1678  0.2606
  131EMI    H1" 2484   4.285   4.183   3.581 -0.3991  0.8966  1.5491
  131EMI    H1" 2485   4.332   4.192   3.424 -1.9140 -1.1106  3.6540
  131EMI    C2" 2486   4.443   4.328   3.536  0.7659 -0.2345  0.0526
  131EMI    H2" 2487   4.471   4.344   3.635  1.4774 -2.6941 -0.1917
  131EMI    H2" 2488   4.530   4.329   3.466 -0.6158 -1.3552 -2.8727
  131EMI    H2" 2489   4.372   4.401   3.498 -0.7043 -0.9824  2.9485
  132EMI     N1 2490   3.380   3.493   0.252  0.0681  0.0135  0.4982
  132EMI     C2 2491   3.328   3.390   0.320  0.0821  0.0046 -0.2563
  132EMI     N3 2492   3.195   3.405   0.347  0.1765  0.1497  0.5635
  132EMI     C4 2493   3.168   3.521   0.276  0.0839  0.2026 -0.3370
  132EMI     C5 2494   3.277   3.577   0.217  0.3620 -0.0675  0.2055
  132EMI     H2 2495   3.396   3.314   0.345 -0.4647 -1.2269  2.8081
  132EMI     H4 2496   3.064   3.563   0.269 -0.6253 -0.4623 -0.1123
  132EMI     H5 2497   3.274   3.670   0.163  0.6745  0.8281 -2.9921
  132EMI    C1' 2498   3.100   3.316   0.409 -0.0639 -0.2045  0.2315
  132EMI    H1' 2499   3.146   3.215   0.406 -0.6522  2.1420  1.2668
  132EMI    H1' 2500   3.068   3.336   0.507 -1.6027 -0.8093  0.9113
  132EMI    H1' 2501   3.017   3.309   0.344  0.0813 -0.8944  1.8041
  132EMI    C1" 2502   3.523   3.519   0.224 -0.2576 -0.0380 -0.0681
  132EMI    H1" 2503   3.529   3.615   0.173  1.2758  1.9813  0.4986
  132EMI    H1" 2504   3.552   3.426   0.183 -0.2534 -1.4105  0.7038
  132EMI    C2" 2505   3.593   3.544   0.358  0.4235  0.9725  0.4079
  132EMI    H2" 2506   3.595   3.447   0.406  1.0124 -1.4039 -2.4342
  132EMI    H2" 2507   3.701   3.576   0.350  3.8322  1.0821 -1.1378
  132EMI    H2" 2508   3.532   3.608   0.413  0.5659  2.2403  3.6959
  133EMI     N1 2509   2.045   1.766   2.106 -0.0222  0.2491 -0.4777
  133EMI     C2 2510   1.952   1.853   2.061  0.8306  0.3600  0.4341
  133EMI     N3 2511   1.946   1.842   1.928  0.4942 -0.0293  0.2880
  133EMI     C4 2512   2.038   1.752   1.889 -0.3307 -0.4792 -0.0691
  133EMI     C5 2513   2.100   1.706   1.996 -0.3912  0.2906  0.2257
  133EMI     H2 2514   1.879   1.896   2.128  0.9018  2.1568  0.6795
  133EMI     H4 2515   2.058   1.718   1.789  1.1216  4.0860  1.5197
  133EMI     H5 2516   2.168   1.630   2.004  0.9242 -1.0753  0.9689
  133EMI    C1' 2517   1.853   1.895   1.835 -0.3930 -0.4745  0.0543
  133EMI    H1' 2518   1.752   1.859   1.863 -0.9066 -2.0335  1.5654
  133EMI    H1' 2519   1.854   2.004   1.836  2.3964  0.6724 -2.2802
  133EMI    H1' 2520   1.879   1.872   1.729  0.3552 -1.6040 -1.9409
  133EMI    C1" 2521   2.077   1.728   2.242  0.1219  0.2624  0.3746
  133EMI    H1" 2522   2.160   1.662   2.252  0.3929  0.3076  0.8704
  133EMI    H1" 2523   2.003   1.674   2.304 -0.0405  1.1606 -0.1003
  133EMI    C2" 2524   2.116   1.846   2.326  0.5095 -0.1820 -0.5631
  133EMI    H2" 2525   2.033   1.914   2.334  0.1703 -2.4036 -0.0225
  133EMI    H2" 2526   2.151   1.817   2.424 -5.0693 -0.1294  0.0228
  133EMI    H2" 2527   2.197   1.898   2.279 -1.2596 -0.2428  2.5375
  134EMI     N1 2528   0.864   3.938   6.229 -0.2423  0.3863 -0.1362
  134EMI     C2 2529   0.970   3.898   6.155  0.4319 -0.2958  0.4590
  134EMI     N3 2530   0.955   3.947   6.028 -0.3322  0.0064  0.4199
  134EMI     C4 2531   0.837   4.019   6.024 -0.4831  0.1335 -0.1812
  134EMI     C5 2532   0.789   4.023   6.152  0.5389  0.1149 -0.0904
  134EMI     H2 2533   1.045   3.836   6.200  2.6761 -0.8081 -2.2060
  134EMI     H4 2534   0.794   4.077   5.942  0.7824  1.3407  0.1875
  134EMI     H5 2535   0.701   4.087   6.172 -1.1141 -0.2253  1.5368
  134EMI    C1' 2536   1.040   3.928   5.912  0.1101 -0.2716  0.5451
  134EMI    H1' 2537   1.050   3.832   5.880  0.4898 -1.0310  2.0890
  134EMI    H1' 2538   1.002   3.987   5.827 -0.8223  1.2565 -5.0234
  134EMI    H1' 2539   1.139   3.965   5.932 -0.0452  2.0829 -1.7282
  134EMI    C1" 2540   0.832   3.904   6.364  0.2293  0.5040  0.5249
  134EMI    H1" 2541   0.899   3.823   6.401 -3.3107  1.4195  1.0375
  134EMI    H1" 2542   0.733   3.867   6.348  2.5773  0.0119 -0.1432
  134EMI    C2" 2543   0.842   4.024   6.459 -0.3706  0.1907  0.7805
  134EMI    H2" 2544   0.946   4.048   6.471 -3.6703  3.2652  0.8739
  134EMI    H2" 2545   0.786   4.112   6.418 -0.0103  0.0749 -0.3890
  134EMI    H2" 2546   0.803   4.005   6.557  1.3501  1.1411 -2.1836
  135EMI     N1 2547   3.375   0.434   6.110 -0.5930  0.0489  0.2575
  135EMI     C2 2548   3.349   0.445   5.978  1.3699 -0.2720  0.0698
  135EMI     N3 2549   3.217   0.479   5.961 -0.0720  0.0756 -0.3485
  135EMI     C4 2550   3.164   0.491   6.085 -0.4027  0.9041  1.6684
  135EMI     C5 2551   3.258   0.460   6.173 -0.0073  0.3883 -0.2415
  135EMI     H2 2552   3.416   0.423   5.896 -1.3640  0.1837  0.4648
  135EMI     H4 2553   3.057   0.521   6.107 -1.8905 -0.8949  1.5177
  135EMI     H5 2554   3.233   0.455   6.281 -0.2145 -0.2297 -2.5579
  135EMI    C1' 2555   3.130   0.504   5.849  0.8090 -0.2607 -0.6803
  135EMI    H1' 2556   3.170   0.581   5.785 -1.1253  1.0026 -2.0956
  135EMI    H1' 2557   3.117   0.420   5.781  1.3897 -0.1099 -1.1720
  135EMI    H1' 2558   3.033   0.530   5.892 -0.9798  2.3343  1.7247
  135EMI    C1" 2559   3.507   0.400   6.174  0.3573 -0.1578 -0.4958
  135EMI    H1" 2560   3.586   0.423   6.102  0.5725 -0.2940  2.1700
  135EMI    H1" 2561   3.511   0.285   6.199 -3.2795 -0.7002  1.9218
  135EMI    C2" 2562   3.522   0.478   6.307 -1.1581 -0.1328  0.6280
  135EMI    H2" 2563   3.621   0.460   6.345  0.3375 -2.9307 -0.3977
  135EMI    H2" 2564   3.507   0.584   6.292  1.8012 -0.1059 -0.3007
  135EMI    H2" 2565   3.445   0.435   6.372 -0.8331  1.4680  0.3843
  136EMI     N1 2566   6.166   0.073   1.353 -0.0390 -0.4454  0.1989
  136EMI     C2 2567   6.126  -0.038   1.283 -0.3979 -0.3618 -0.3693
  136EMI     N3 2568   6.110  -0.013   1.152 -0.2402  0.1045 -0.0080
  136EMI     C4 2569   6.156   0.113   1.141  1.0067  0.1818  0.6396
  136EMI     C5 2570   6.185   0.170   1.259  0.0134 -0.0706 -0.2524
  136EMI     H2 2571   6.103  -0.130   1.338  1.3321  2.3907  3.0480
  136EMI     H4 2572   6.164   0.166   1.045  2.0983  2.6480 -1.7941
  136EMI     H5 2573   6.214   0.272   1.278  0.9036 -0.1252 -0.3610
  136EMI    C1' 2574   6.076  -0.099   1.040  0.0996 -0.3816  0.4596
  136EMI    H1' 2575   6.035  -0.189   1.081  4.4094 -0.4704  1.5028
  136EMI    H1' 2576   6.002  -0.055   0.970 -1.0991 -3.7160 -2.5885
  136EMI    H1' 2577   6.168  -0.135   0.997 -1.3853 -0.3296  0.1587
  136EMI    C1" 2578   6.181   0.106   1.500  0.1253  0.6468 -0.5485
  136EMI    H1" 2579   6.288   0.130   1.525 -1.1429 -2.1828  0.9746
  136EMI    H1" 2580   6.156   0.007   1.554  1.7344 -1.2310  0.1162
  136EMI    C2" 2581   6.098   0.218   1.566  0.2096  0.3369 -0.5067
  136EMI    H2" 2582   6.104   0.215   1.677  2.7243  1.5624 -0.5664
  136EMI    H2" 2583   6.123   0.317   1.533 -0.8498  0.0187  0.0504
  136EMI    H2" 2584   5.997   0.201   1.528 -0.7341 -1.5690  0.9340
  137EMI     N1 2585   5.827   4.585   2.306  0.5864  0.2470 -0.6775
  137EMI     C2 2586   5.879   4.672   2.402 -0.1124  0.5859  0.1537
  137EMI     N3 2587   5.799   4.784   2.404  0.2386 -0.0812  0.3448
  137EMI     C4 2588   5.712   4.774   2.300  0.5381 -0.2839  0.5893
  137EMI     C5 2589   5.728   4.656   2.238  0.3256 -0.3825 -0.3389
  137EMI     H2 2590   5.958   4.647   2.471 -0.8306  1.0436 -0.0119
  137EMI     H4 2591   5.641   4.844   2.274 -1.9710 -0.5523  0.4540
  137EMI     H5 2592   5.685   4.620   2.147  1.8874  1.3019  0.9775
  137EMI    C1' 2593   5.790   4.892   2.507  0.6338  0.4868  0.4139
  137EMI    H1' 2594   5.718   4.972   2.481 -1.7341 -1.3231  0.1007
  137EMI    H1' 2595   5.750   4.849   2.602 -0.8589 -2.4060 -2.3938
  137EMI    H1' 2596   5.886   4.935   2.530  2.4380 -4.4223  0.9086
  137EMI    C1" 2597   5.884   4.461   2.249  0.3361  0.2360  0.0835
  137EMI    H1" 2598   5.975   4.442   2.308  3.6323  1.4484 -1.9276
  137EMI    H1" 2599   5.910   4.477   2.144  0.9730  1.0582 -2.1862
  137EMI    C2" 2600   5.786   4.350   2.273  0.3686 -0.7608  0.1778
  137EMI    H2" 2601   5.763   4.348   2.380 -0.7141 -1.0453 -0.4542
  137EMI    H2" 2602   5.697   4.362   2.208 -1.8466 -2.3486  1.4864
  137EMI    H2" 2603   5.828   4.254   2.235 -1.8274 -1.3480 -0.8811
  138EMI     N1 2604   0.651   0.741   2.078  0.1653 -0.1856 -0.1307
  138EMI     C2 2605   0.715   0.629   2.079  0.0478 -0.2356 -0.2087
  138EMI     N3 2606   0.643   0.528   2.018 -0.3299 -0.6605  0.9587
  138EMI     C4 2607   0.520   0.584   1.974  0.0934  0.5453  0.4270
  138EMI     C5 2608   0.528   0.713   2.015  0.1135 -0.0363  0.5448
  138EMI     H2 2609   0.808   0.608   2.135  3.3828  1.8193  0.8555
  138EMI     H4 2610   0.435   0.531   1.932  0.8995  0.4196  0.4181
  138EMI     H5 2611   0.452   0.786   1.998  0.7699 -0.1431 -0.1272
  138EMI    C1' 2612   0.690   0.392   1.985 -0.5243  0.4447  0.3540
  138EMI    H1' 2613   0.648   0.319   2.057 -0.6935 -0.1111  0.1909
  138EMI    H1' 2614   0.670   0.352   1.884 -1.4956  0.2260 -0.7346
  138EMI    H1' 2615   0.795   0.399   1.991  2.7405 -0.0630  0.4314
  138EMI    C1" 2616   0.691   0.876   2.122  0.0969 -0.0298 -0.0275
  138EMI    H1" 2617   0.713   0.858   2.231 -3.6412  0.9693 -1.4557
  138EMI    H1" 2618   0.607   0.949   2.110 -2.5177  0.4086  0.3459
  138EMI    C2" 2619   0.817   0.923   2.046  0.2328  0.3314  0.3762
  138EMI    H2" 2620   0.849   1.029   2.070  0.9348  0.6137  1.0961
  138EMI    H2" 2621   0.901   0.850   2.080 -2.1352 -0.9086  1.2867
  138EMI    H2" 2622   0.791   0.916   1.937 -0.5069  0.1430  0.2565
  139EMI     N1 2623   1.001   6.005   5.314  0.1941 -0.0658 -0.2748
  139EMI     C2 2624   0.920   5.895   5.314  0.3147  0.3695 -0.5721
  139EMI     N3 2625   0.802   5.924   5.380 -0.0218  0.4309  0.0999
  139EMI     C4 2626   0.815   6.056   5.422 -0.1651  0.1216 -0.7674
  139EMI     C5 2627   0.934   6.099   5.384  0.3370  0.8872  0.4163
  139EMI     H2 2628   0.936   5.797   5.271  3.0670 -0.8910 -0.3201
  139EMI     H4 2629   0.739   6.111   5.468  1.6871 -0.6276 -2.6186
  139EMI     H5 2630   0.967   6.199   5.403 -3.0443  0.9041 -2.2697
  139EMI    C1' 2631   0.695   5.823   5.423  0.0001  0.2130 -0.0380
  139EMI    H1' 2632   0.706   5.737   5.354 -0.4178 -2.6758  1.8083
  139EMI    H1' 2633   0.701   5.797   5.528 -1.5170 -2.0445 -1.3381
  139EMI    H1' 2634   0.597   5.858   5.410  1.0102 -1.1194 -0.3305
  139EMI    C1" 2635   1.147   6.017   5.286  0.1479  0.0275 -1.1578
  139EMI    H1" 2636   1.196   6.045   5.376 -1.0465 -1.0445  1.8796
  139EMI    H1" 2637   1.166   6.099   5.223 -0.2421 -1.0568 -0.6669
  139EMI    C2" 2638   1.203   5.888   5.217  0.0385  0.3354  0.0676
  139EMI    H2" 2639   1.167   5.801   5.264 -2.9302  0.5791 -1.6883
  139EMI    H2" 2640   1.186   5.885   5.110  1.6009  0.5439 -1.0232
  139EMI    H2" 2641   1.319   5.895   5.223  1.7460  2.8882 -0.2117
  140EMI     N1 2642   0.561   2.781   5.637 -0.1577  0.0551  0.1076
  140EMI     C2 2643   0.617   2.897   5.581 -0.3476  0.3196 -0.1528
  140EMI     N3 2644   0.720   2.856   5.507  0.1306  0.1850  1.2256
  140EMI     C4 2645   0.724   2.719   5.507  0.1072 -0.4195  0.8603
  140EMI     C5 2646   0.630   2.672   5.587  0.3986  0.3905  0.3124
  140EMI     H2 2647   0.605   3.003   5.610  1.4306 -2.2357 -1.7122
  140EMI     H4 2648   0.801   2.664   5.455 -0.7805  2.4860  0.8388
  140EMI     H5 2649   0.606   2.573   5.615 -0.6995 -0.5369  1.4709
  140EMI    C1' 2650   0.835   2.936   5.458 -0.0700 -0.5588 -0.2475
  140EMI    H1' 2651   0.834   3.040   5.496 -3.0235 -0.8511 -1.6066
  140EMI    H1' 2652   0.921   2.883   5.502  0.5516 -0.7889 -0.6089
  140EMI    H1' 2653   0.853   2.951   5.347  0.3915 -0.3872 -1.2251
  140EMI    C1" 2654   0.456   2.786   5.739  0.0466  0.4808  0.0395
  140EMI    H1" 2655   0.478   2.876   5.793 -0.0408 -1.0903 -2.4865
  140EMI    H1" 2656   0.468   2.695   5.798  0.2121  0.1864  0.5192
  140EMI    C2" 2657   0.319   2.762   5.666  0.1081 -0.5265  0.0288
  140EMI    H2" 2658   0.246   2.751   5.743 -1.2964 -0.1045 -0.9171
  140EMI    H2" 2659   0.301   2.855   5.599  0.3015  2.3278 -2.7320
  140EMI    H2" 2660   0.334   2.682   5.598  1.7445  1.4700 -1.0878
  141EMI     N1 2661   4.294   5.286   1.175  0.3591 -0.3990 -0.4429
  141EMI     C2 2662   4.260   5.292   1.042  0.2267  0.4355 -0.8515
  141EMI     N3 2663   4.358   5.234   0.964  0.2937  0.1901 -0.4221
  141EMI     C4 2664   4.457   5.201   1.054 -0.4665  1.2691  0.0980
  141EMI     C5 2665   4.415   5.225   1.178  0.0226 -0.3436 -0.6046
  141EMI     H2 2666   4.169   5.342   1.014  2.8830  1.2778  0.2468
  141EMI     H4 2667   4.553   5.164   1.021 -1.5413  1.5038 -0.3833
  141EMI     H5 2668   4.470   5.212   1.271  1.5129  0.2083 -1.3396
  141EMI    C1' 2669   4.367   5.241   0.815  0.1304  0.5261 -0.0923
  141EMI    H1' 2670   4.290   5.172   0.769 -1.1057 -0.6374  2.7320
  141EMI    H1' 2671   4.358   5.341   0.783  0.8978 -2.3848 -0.7189
  141EMI    H1' 2672   4.455   5.203   0.781  0.5275  2.3704 -0.0295
  141EMI    C1" 2673   4.232   5.343   1.297 -0.1732  0.5787  0.0676
  141EMI    H1" 2674   4.269   5.285   1.378 -0.0501 -2.2631  1.4720
  141EMI    H1" 2675   4.126   5.335   1.287  0.8923 -1.1235 -2.1003
  141EMI    C2" 2676   4.281   5.482   1.329  0.1912 -0.3041 -0.1128
  141EMI    H2" 2677   4.391   5.489   1.318 -1.0600  1.0170  0.3691
  141EMI    H2" 2678   4.242   5.544   1.261  0.5660 -4.7918 -1.0682
  141EMI    H2" 2679   4.235   5.504   1.428  0.1171  0.3792 -1.1001
  142EMI     N1 2680   4.537   0.922   0.288  0.4792 -0.7071  0.2028
  142EMI     C2 2681   4.593   0.888   0.403 -0.2183  0.1391  0.2622
  142EMI     N3 2682   4.662   0.777   0.399  0.5178 -0.4195  0.6534
  142EMI     C4 2683   4.648   0.722   0.273  0.8335  0.1789 -1.0194
  142EMI     C5 2684   4.574   0.820   0.200 -1.1996  0.2989 -1.0313
  142EMI     H2 2685   4.585   0.949   0.497  2.0081  1.0194  0.5931
  142EMI     H4 2686   4.684   0.628   0.233 -0.5083  2.0046 -2.4546
  142EMI     H5 2687   4.553   0.813   0.093  1.5647 -1.4203  1.0057
  142EMI    C1' 2688   4.721   0.712   0.518  0.0400  0.3874 -0.4498
  142EMI    H1' 2689   4.811   0.656   0.488  0.1824 -0.7700  3.6557
  142EMI    H1' 2690   4.746   0.786   0.587  2.5349  0.1762 -0.4007
  142EMI    H1' 2691   4.652   0.645   0.564  2.0066  1.9932 -0.9262
  142EMI    C1" 2692   4.458   1.045   0.256  0.6414 -0.1825  0.0295
  142EMI    H1" 2693   4.455   1.054   0.142  2.7120  0.5397 -0.3172
  142EMI    H1" 2694   4.506   1.131   0.295 -1.3339  1.6753 -0.3439
  142EMI    C2" 2695   4.312   1.045   0.306  0.0978 -0.0913 -0.9613
  142EMI    H2" 2696   4.254   1.133   0.267  2.0106 -3.2384  1.5297
  142EMI    H2" 2697   4.254   0.957   0.273 -1.0190 -1.3211 -0.1186
  142EMI    H2" 2698   4.304   1.048   0.414  0.1026  0.3148 -0.0646
  143EMI     N1 2699   2.537   0.582   3.734 -0.4445 -0.1169  0.5579
  143EMI     C2 2700   2.494   0.653   3.844 -0.2054 -0.4751 -0.6941
  143EMI     N3 2701   2.549   0.596   3.953  0.5066 -0.7917  0.6633
  143EMI     C4 2702   2.628   0.492   3.913 -0.4615  0.1762  0.2435
  143EMI     C5 2703   2.629   0.488   3.776  1.3394  0.6152 -0.5104
  143EMI     H2 2704   2.418   0.724   3.864  0.1243 -0.0114  1.2499
  143EMI     H4 2705   2.677   0.426   3.983  0.5568 -0.7436 -0.6117
  143EMI     H5 2706   2.681   0.424   3.712  1.8532  1.2968 -1.1609
  143EMI    C1' 2707   2.530   0.646   4.085  0.3078 -0.0919  0.3543
  143EMI    H1' 2708   2.484   0.747   4.096 -0.6778  1.3244  1.3534
  143EMI    H1' 2709   2.459   0.584   4.134 -0.5062  1.1071 -0.8539
  143EMI    H1' 2710   2.616   0.636   4.142 -1.6942 -0.8946  3.1410
  143EMI    C1" 2711   2.477   0.584   3.598 -0.3934 -0.6710  0.3438
  143EMI    H1" 2712   2.414   0.674   3.596  0.6799  0.7886 -1.2134
  143EMI    H1" 2713   2.424   0.496   3.566  1.1065  0.1717 -2.7801
  143EMI    C2" 2714   2.588   0.605   3.496 -0.1353  0.0189 -0.0958
  143EMI    H2" 2715   2.546   0.627   3.397  1.2531 -0.1885  2.9699
  143EMI    H2" 2716   2.638   0.691   3.530 -1.0146 -1.0456  2.8677
  143EMI    H2" 2717   2.657   0.519   3.504 -0.6326  2.9277 -0.2667
  144EMI     N1 2718   4.180   0.622   2.937  0.1965 -0.1422  0.0074
  144EMI     C2 2719   4.145   0.565   3.054 -0.3346  0.2213  0.2516
  144EMI     N3 2720   4.062   0.467   3.035  0.5672  0.0789  0.4106
  144EMI     C4 2721   4.034   0.463   2.899  0.1274  0.3663  0.7466
  144EMI     C5 2722   4.108   0.557   2.841 -0.2500  0.4773  0.0672
  144EMI     H2 2723   4.163   0.600   3.154  0.5957  1.9001  1.2418
  144EMI     H4 2724   3.959   0.390   2.854 -0.1672 -2.7331 -1.4715
  144EMI     H5 2725   4.122   0.582   2.733  0.6329  2.2826  2.1721
  144EMI    C1' 2726   3.994   0.381   3.138  0.7524 -0.6241  0.4567
  144EMI    H1' 2727   4.036   0.404   3.240  1.9149  1.4065  2.6194
  144EMI    H1' 2728   3.891   0.409   3.142 -1.3771 -0.3782 -0.6662
  144EMI    H1' 2729   4.013   0.278   3.111  2.9400  0.1799 -0.3060
  144EMI    C1" 2730   4.246   0.746   2.911 -0.5846 -0.1733  0.0497
  144EMI    H1" 2731   4.315   0.741   2.833 -1.2640  0.7589  4.5606
  144EMI    H1" 2732   4.301   0.781   2.996 -0.9014  1.2863 -0.6829
  144EMI    C2" 2733   4.144   0.861   2.874 -0.2197 -0.0014 -0.1095
  144EMI    H2" 2734   4.083   0.884   2.957 -0.1161 -2.5824 -1.6474
  144EMI    H2" 2735   4.203   0.945   2.841 -1.4451  2.2883 -0.6249
  144EMI    H2" 2736   4.083   0.830   2.787  0.1718 -1.3997 -3.0506
  145EMI     N1 2737   3.952   1.668   1.154 -0.2650  0.0926  0.1692
  145EMI     C2 2738   4.038   1.562   1.148  0.3180 -0.2570 -0.9685
  145EMI     N3 2739   4.026   1.481   1.258 -0.0575 -0.4300  0.5568
  145EMI     C4 2740   3.928   1.546   1.339  0.2041  0.1735  0.2894
  145EMI     C5 2741   3.891   1.658   1.279  0.0902  0.4379 -0.2274
  145EMI     H2 2742   4.073   1.530   1.054  2.2530  0.7775 -2.2845
  145EMI     H4 2743   3.902   1.517   1.440 -0.5250 -1.2134  0.9734
  145EMI     H5 2744   3.827   1.737   1.319  0.6493  0.1665 -0.2297
  145EMI    C1' 2745   4.083   1.349   1.292  0.2147 -0.7572 -0.3381
  145EMI    H1' 2746   4.050   1.292   1.202 -0.0126  0.3002 -0.1836
  145EMI    H1' 2747   4.188   1.339   1.320 -3.3407  0.8624  0.5087
  145EMI    H1' 2748   4.025   1.300   1.374  2.2329  0.3206  2.3703
  145EMI    C1" 2749   3.924   1.780   1.060  0.6144 -0.4619 -0.0739
  145EMI    H1" 2750   3.813   1.793   1.053  1.1182  0.2950  1.1539
  145EMI    H1" 2751   3.946   1.743   0.960 -0.3286  1.1456  1.4072
  145EMI    C2" 2752   3.980   1.914   1.112  0.1170  0.4318 -0.0839
  145EMI    H2" 2753   4.087   1.906   1.092  4.1516  0.7087  1.1538
  145EMI    H2" 2754   3.941   1.986   1.053 -0.3775 -2.7210  3.4300
  145EMI    H2" 2755   3.954   1.937   1.213  1.6332 -2.3320  0.1051
  146EMI     N1 2756   3.317   6.618   4.180  0.7862  0.5389  0.0441
  146EMI     C2 2757   3.235   6.687   4.259 -0.6019  0.3605  0.4614
  146EMI     N3 2758   3.176   6.788   4.191  0.0116 -0.9607 -0.3340
  146EMI     C4 2759   3.228   6.781   4.062 -0.3614 -0.1708  0.3128
  146EMI     C5 2760   3.309   6.676   4.052  0.1818  0.0461  0.4288
  146EMI     H2 2761   3.226   6.673   4.365  0.1322 -3.5127 -2.9056
  146EMI     H4 2762   3.200   6.846   3.977 -3.0256 -0.4950  0.1610
  146EMI     H5 2763   3.371   6.655   3.962  3.3022  0.8450 -1.7433
  146EMI    C1' 2764   3.094   6.902   4.238  0.0624  0.1129 -0.3061
  146EMI    H1' 2765   3.045   6.941   4.150 -0.0655  1.9435 -0.3393
  146EMI    H1' 2766   3.013   6.868   4.304 -2.7180  0.9730  0.1546
  146EMI    H1' 2767   3.151   6.983   4.285 -1.7299  2.2208 -0.0148
  146EMI    C1" 2768   3.399   6.503   4.220 -0.6102  0.9050  1.0024
  146EMI    H1" 2769   3.489   6.528   4.266  0.9160 -1.3237 -1.3372
  146EMI    H1" 2770   3.436   6.448   4.128  2.3875 -1.1173  1.1881
  146EMI    C2" 2771   3.329   6.397   4.308  0.4015 -0.5230  0.4104
  146EMI    H2" 2772   3.232   6.363   4.268 -0.9225  0.5410  0.0887
  146EMI    H2" 2773   3.393   6.309   4.320 -0.0385 -1.7741  0.9322
  146EMI    H2" 2774   3.318   6.452   4.409  0.0703  0.0187  1.2352
  147EMI     N1 2775   5.500   0.956   4.430 -0.0787 -0.0006  0.0536
  147EMI     C2 2776   5.489   0.835   4.498  0.5222 -0.5035  0.1271
  147EMI     N3 2777   5.604   0.762   4.489  0.3711 -0.7991 -1.3175
  147EMI     C4 2778   5.702   0.851   4.439  0.5312  0.0589  0.0138
  147EMI     C5 2779   5.638   0.961   4.395  0.0445  0.2889  0.1084
  147EMI     H2 2780   5.399   0.785   4.532  2.5042 -2.2286 -0.9816
  147EMI     H4 2781   5.808   0.838   4.428 -0.7241  0.2074 -0.2571
  147EMI     H5 2782   5.684   1.046   4.346  0.0052 -2.1588  1.0258
  147EMI    C1' 2783   5.620   0.627   4.529  0.3806  0.3638 -0.6090
  147EMI    H1' 2784   5.608   0.625   4.637  1.4009  0.2674  0.2919
  147EMI    H1' 2785   5.555   0.559   4.479 -0.2439  0.6624  1.3526
  147EMI    H1' 2786   5.727   0.599   4.515 -0.5934 -1.5343  1.7904
  147EMI    C1" 2787   5.399   1.058   4.405 -0.0898 -0.2135  0.9851
  147EMI    H1" 2788   5.313   1.014   4.351 -0.2361  2.7516  1.1559
  147EMI    H1" 2789   5.439   1.125   4.335 -1.7939 -1.3101  0.9969
  147EMI    C2" 2790   5.359   1.128   4.532  0.0858  0.0134 -0.2420
  147EMI    H2" 2791   5.330   1.051   4.602 -1.1458 -1.1966  0.5051
  147EMI    H2" 2792   5.447   1.187   4.573  2.4402  1.8978  1.5338
  147EMI    H2" 2793   5.282   1.207   4.525  0.4600  0.8188 -0.3113
  148EMI     N1 2794   1.703   0.953   2.419  0.1715 -0.6878 -0.2921
  148EMI     C2 2795   1.673   1.086   2.437  0.2312 -0.5266 -0.0295
  148EMI     N3 2796   1.713   1.119   2.562  0.5906 -0.0170  0.3286
  148EMI     C4 2797   1.750   1.004   2.630 -0.9556  0.1339 -0.0942
  148EMI     C5 2798   1.744   0.902   2.539  0.5215 -0.2216 -0.0927
  148EMI     H2 2799   1.647   1.147   2.355 -3.0456 -1.5450 -1.4209
  148EMI     H4 2800   1.796   0.993   2.730  1.5404 -2.1326 -1.1917
  148EMI     H5 2801   1.783   0.802   2.563  0.0788  0.4301 -3.1144
  148EMI    C1' 2802   1.712   1.252   2.633 -1.2100 -0.0363  0.6643
  148EMI    H1' 2803   1.714   1.227   2.736 -0.6671  0.3911  0.4350
  148EMI    H1' 2804   1.793   1.322   2.600  1.2611  2.5553  2.0215
  148EMI    H1' 2805   1.614   1.297   2.623 -0.6689 -0.6900  2.5208
  148EMI    C1" 2806   1.698   0.868   2.301 -0.1039  0.2333  0.2821
  148EMI    H1" 2807   1.604   0.891   2.246 -1.8832 -3.4697  0.1578
  148EMI    H1" 2808   1.681   0.767   2.336 -0.0215 -1.7784  0.5351
  148EMI    C2" 2809   1.827   0.867   2.213 -0.2170 -0.1993 -0.1149
  148EMI    H2" 2810   1.916   0.858   2.268  0.3250 -0.1629 -1.9128
  148EMI    H2" 2811   1.822   0.781   2.139  1.6999 -0.7462  1.7029
  148EMI    H2" 2812   1.819   0.963   2.158 -1.5877  1.4118 -1.2979
  149EMI     N1 2813   0.259   2.272   2.222 -0.2935  0.2427  0.1103
  149EMI     C2 2814   0.214   2.396   2.239 -0.5375 -0.5862 -0.8164
  149EMI     N3 2815   0.289   2.477   2.155  0.1448  0.4629 -0.4906
  149EMI     C4 2816   0.372   2.400   2.082 -0.2591  0.3148 -0.6207
  149EMI     C5 2817   0.350   2.273   2.122 -0.1448 -0.0971  0.1224
  149EMI     H2 2818   0.143   2.431   2.309  0.1426  3.2978 -1.5828
  149EMI     H4 2819   0.446   2.444   2.013 -0.6424  1.8196 -0.4236
  149EMI     H5 2820   0.402   2.186   2.085 -0.8294 -1.7987 -1.1684
  149EMI    C1' 2821   0.300   2.628   2.157  0.6041 -0.1488  0.1080
  149EMI    H1' 2822   0.279   2.658   2.263  0.5894 -0.1193 -1.1229
  149EMI    H1' 2823   0.400   2.668   2.129 -1.4125  0.5214 -1.0584
  149EMI    H1' 2824   0.229   2.673   2.082  3.4120  0.4036  0.7859
  149EMI    C1" 2825   0.230   2.144   2.290 -0.2826  0.0429 -0.0623
  149EMI    H1" 2826   0.266   2.150   2.393  2.2393 -0.2159  0.4914
  149EMI    H1" 2827   0.277   2.055   2.235 -1.2065  1.6746 -2.5958
  149EMI    C2" 2828   0.078   2.116   2.277 -0.3867 -0.0591  0.2044
  149EMI    H2" 2829   0.056   2.007   2.294  1.9743 -1.6430  0.0415
  149EMI    H2" 2830   0.023   2.187   2.351  0.6713  2.0039  2.1311
  149EMI    H2" 2831   0.041   2.143   2.179 -0.8789  0.0481  1.9466
  150EMI     N1 2832   2.618   5.735   6.668 -0.0163  0.2039 -0.3494
  150EMI     C2 2833   2.683   5.672   6.765  0.6162 -0.2160  0.3559
  150EMI     N3 2834   2.801   5.626   6.719  0.1516  0.2084  0.3017
  150EMI     C4 2835   2.809   5.654   6.583  0.5274 -0.3067  0.1300
  150EMI     C5 2836   2.695   5.719   6.558  0.9721 -0.3957  0.1014
  150EMI     H2 2837   2.649   5.676   6.870 -0.7804  1.4116  2.0916
  150EMI     H4 2838   2.893   5.623   6.522 -0.8851  0.9805  1.7213
  150EMI     H5 2839   2.670   5.748   6.460 -0.0053 -2.5335 -0.8346
  150EMI    C1' 2840   2.921   5.579   6.788  0.4564 -0.1623  0.5518
  150EMI    H1' 2841   2.931   5.644   6.874 -3.6107  0.5839 -0.6549
  150EMI    H1' 2842   2.890   5.469   6.817 -0.5786 -1.2463 -1.0330
  150EMI    H1' 2843   3.015   5.580   6.720  1.8670  1.3367 -0.8843
  150EMI    C1" 2844   2.493   5.807   6.676  0.0957 -0.2690 -0.1816
  150EMI    H1" 2845   2.443   5.795   6.772  0.3510  0.8305  0.6079
  150EMI    H1" 2846   2.425   5.784   6.593  1.1170 -0.7224 -1.8101
  150EMI    C2" 2847   2.529   5.955   6.662 -0.3348 -0.1067 -0.2175
  150EMI    H2" 2848   2.442   6.029   6.672 -3.2719  1.8195  0.5135
  150EMI    H2" 2849   2.590   5.988   6.747  1.2874  1.2178  0.1960
  150EMI    H2" 2850   2.585   5.973   6.574 -0.2330  1.1308  0.0234
  151EMI     N1 2851   2.263   4.958   4.541 -0.5714  0.1034 -0.0027
  151EMI     C2 2852   2.275   5.028   4.652  0.0518 -0.1040  0.3285
  151EMI     N3 2853   2.175   5.116   4.660  0.4636 -0.1334  0.4426
  151EMI     C4 2854   2.090   5.099   4.554 -0.7137 -0.0341 -0.5172
  151EMI     C5 2855   2.142   4.997   4.487  0.1924 -0.3874  0.2210
  151EMI     H2 2856   2.356   5.016   4.728  1.7777  1.4235  3.1702
  151EMI     H4 2857   1.999   5.149   4.532 -0.8532  1.9276 -0.8625
  151EMI     H5 2858   2.091   4.948   4.394 -0.8083  1.1254 -3.0986
  151EMI    C1' 2859   2.139   5.216   4.762  0.2464  0.4497 -0.4343
  151EMI    H1' 2860   2.196   5.188   4.849  0.1798 -2.7437 -0.7603
  151EMI    H1' 2861   2.170   5.314   4.735 -0.9861  2.4885  2.1921
  151EMI    H1' 2862   2.030   5.207   4.791 -0.0030  0.9111  0.1120
  151EMI    C1" 2863   2.353   4.860   4.479 -0.0356  0.0686 -1.0406
  151EMI    H1" 2864   2.416   4.821   4.555 -1.7112 -1.3439 -1.3452
  151EMI    H1" 2865   2.416   4.915   4.406  0.2737 -1.1030  0.7782
  151EMI    C2" 2866   2.281   4.736   4.425 -0.3914 -0.3941  0.3916
  151EMI    H2" 2867   2.357   4.666   4.396 -0.3279  0.5249 -0.2005
  151EMI    H2" 2868   2.221   4.686   4.499 -0.3317 -0.3330  1.7954
  151EMI    H2" 2869   2.226   4.774   4.333  0.1901 -0.3026  1.0691
  152EMI     N1 2870   0.290   0.662   5.580 -0.4195  0.4505  0.5267
  152EMI     C2 2871   0.331   0.542   5.610 -0.3908  0.0893  0.0472
  152EMI     N3 2872   0.273   0.501   5.726 -0.3828  0.0066 -0.7497
  152EMI     C4 2873   0.177   0.593   5.753  0.4608 -1.2694 -0.1534
  152EMI     C5 2874   0.187   0.691   5.664 -0.6702  0.0906  0.1952
  152EMI     H2 2875   0.403   0.481   5.557  1.3874  2.5443  2.4218
  152EMI     H4 2876   0.099   0.588   5.831 -1.3897 -0.4875  0.7628
  152EMI     H5 2877   0.125   0.777   5.656 -1.0918  1.1044 -0.3324
  152EMI    C1' 2878   0.281   0.371   5.784 -0.1951 -0.6310 -0.0183
  152EMI    H1' 2879   0.256   0.301   5.706 -3.0136 -0.4233 -5.1753
  152EMI    H1' 2880   0.386   0.358   5.812  1.7041 -1.9893 -2.3726
  152EMI    H1' 2881   0.228   0.359   5.875 -0.7068 -0.7283 -1.8826
  152EMI    C1" 2882   0.325   0.751   5.467 -0.3389  0.1425 -0.5584
  152EMI    H1" 2883   0.424   0.723   5.431 -1.4587  0.6991 -0.1424
  152EMI    H1" 2884   0.324   0.855   5.501  2.1036  0.3838 -3.1850
  152EMI    C2" 2885   0.223   0.740   5.354 -0.5710  0.6787 -0.0444
  152EMI    H2" 2886   0.245   0.811   5.281 -2.0754 -4.6225  0.3662
  152EMI    H2" 2887   0.234   0.643   5.300  0.3245 -1.3665  1.1799
  152EMI    H2" 2888   0.127   0.757   5.381  0.8300 -0.3178  1.4114
  153EMI     N1 2889   6.027   3.415   4.508 -0.5327 -0.0870 -0.4377
  153EMI     C2 2890   6.062   3.302   4.445  0.7675 -0.6142 -0.0649
  153EMI     N3 2891   6.145   3.327   4.344 -0.2270 -0.4070  0.0401
  153EMI     C4 2892   6.171   3.466   4.343  0.3515  0.5121 -0.4114
  153EMI     C5 2893   6.101   3.520   4.450  0.7846  0.2456  0.2446
  153EMI     H2 2894   6.014   3.211   4.480  1.8949 -1.3455 -0.8113
  153EMI     H4 2895   6.230   3.515   4.277 -1.2372  2.8992  0.7675
  153EMI     H5 2896   6.092   3.626   4.469 -0.1327  1.3083  0.0280
  153EMI    C1' 2897   6.212   3.244   4.249 -0.9168  0.3380  0.2914
  153EMI    H1' 2898   6.319   3.256   4.266  1.6658 -1.1373  0.3236
  153EMI    H1' 2899   6.197   3.142   4.271  2.3670  0.1858  0.9134
  153EMI    H1' 2900   6.182   3.272   4.149 -0.7753 -0.3168 -0.7104
  153EMI    C1" 2901   5.946   3.444   4.629  0.3647  0.6714  0.5140
  153EMI    H1" 2902   5.979   3.534   4.677  2.2076 -0.8935 -0.6431
  153EMI    H1" 2903   5.968   3.369   4.706  1.8833 -2.7689 -1.4404
  153EMI    C2" 2904   5.794   3.431   4.608  0.2450 -0.5755  0.0234
  153EMI    H2" 2905   5.767   3.357   4.532  0.3948  3.2300  0.1029
  153EMI    H2" 2906   5.734   3.415   4.693 -0.5840  0.5819 -0.0208
  153EMI    H2" 2907   5.763   3.525   4.571  0.2968  1.1544 -1.4577
  154EMI     N1 2908   4.205   6.696   2.935  0.1846 -0.2895 -0.3228
  154EMI     C2 2909   4.196   6.566   2.923  0.0601 -0.0603 -0.4377
  154EMI     N3 2910   4.295   6.516   2.856 -0.0796  0.6599  0.0984
  154EMI     C4 2911   4.385   6.619   2.841  0.2782  0.1835  0.2848
  154EMI     C5 2912   4.327   6.732   2.883  1.0916 -0.2960 -0.1266
  154EMI     H2 2913   4.104   6.514   2.966  1.9973  3.5871  3.0131
  154EMI     H4 2914   4.487   6.606   2.788  0.3335 -1.5249 -0.5109
  154EMI     H5 2915   4.383   6.824   2.881  2.0634  1.4330  2.7207
  154EMI    C1' 2916   4.301   6.378   2.795 -0.5235 -0.1062 -0.3694
  154EMI    H1' 2917   4.236   6.379   2.707 -0.5470 -4.3352  1.3927
  154EMI    H1' 2918   4.400   6.359   2.756  0.5865  1.0517 -2.8878
  154EMI    H1' 2919   4.270   6.292   2.860  0.8768 -0.9989 -1.3083
  154EMI    C1" 2920   4.116   6.798   2.998 -0.1130 -0.1988 -0.1839
  154EMI    H1" 2921   4.174   6.846   3.079  0.4368 -1.2907 -1.1902
  154EMI    H1" 2922   4.037   6.757   3.056 -0.9200  0.5660  0.4424
  154EMI    C2" 2923   4.059   6.888   2.881  0.3400  0.0171 -0.2633
  154EMI    H2" 2924   4.002   6.980   2.922 -2.1257  0.6078  0.6569
  154EMI    H2" 2925   4.141   6.934   2.828  0.3443  0.8051  3.2245
  154EMI    H2" 2926   3.983   6.839   2.818 -1.2303 -0.6249  0.4441
  155EMI     N1 2927   2.971   3.102   5.140  0.4996  0.3380 -0.4483
  155EMI     C2 2928   3.055   3.157   5.233  0.0194  0.5017 -0.1786
  155EMI     N3 2929   3.179   3.164   5.183  0.0267 -0.2630  0.3634
  155EMI     C4 2930   3.180   3.107   5.061  0.0395 -0.1357 -0.6298
  155EMI     C5 2931   3.051   3.068   5.037  0.2093  1.1278  0.2106
  155EMI     H2 2932   3.030   3.195   5.330  1.6636  0.8803  1.9145
  155EMI     H4 2933   3.259   3.085   4.994 -1.1053  2.4479  1.6663
  155EMI     H5 2934   3.015   3.015   4.949 -1.3457  0.6570  0.9943
  155EMI    C1' 2935   3.299   3.225   5.243 -0.7496 -0.1247 -0.5290
  155EMI    H1' 2936   3.390   3.170   5.217 -1.5223 -1.5963  3.0472
  155EMI    H1' 2937   3.312   3.333   5.219  0.9883  1.3527  1.3175
  155EMI    H1' 2938   3.306   3.222   5.352 -1.0306  1.0999 -1.2573
  155EMI    C1" 2939   2.830   3.076   5.143 -0.2151  0.0534  0.2809
  155EMI    H1" 2940   2.815   3.035   5.242  0.8740  0.1852  2.0567
  155EMI    H1" 2941   2.805   3.005   5.067 -1.3608  1.9323  1.7418
  155EMI    C2" 2942   2.748   3.210   5.124 -0.8337 -0.4779  0.1336
  155EMI    H2" 2943   2.788   3.285   5.201  0.3498 -0.3751 -0.0493
  155EMI    H2" 2944   2.755   3.243   5.015 -1.2294 -0.6067 -0.8374
  155EMI    H2" 2945   2.643   3.203   5.154 -0.8729  3.3419 -0.9982
  156EMI     N1 2946   2.318   2.974   3.480 -0.3013  0.0182  0.3696
  156EMI     C2 2947   2.276   3.093   3.505  0.0065 -0.5029 -0.0700
  156EMI     N3 2948   2.220   3.100   3.630  0.3535 -0.1872 -0.2498
  156EMI     C4 2949   2.229   2.971   3.677  0.5232 -0.4142 -0.1622
  156EMI     C5 2950   2.294   2.897   3.589  0.8157  0.5845  0.1892
  156EMI     H2 2951   2.291   3.171   3.429 -0.0799  0.0714  0.8512
  156EMI     H4 2952   2.184   2.939   3.772  1.8983  0.0871  0.8488
  156EMI     H5 2953   2.314   2.789   3.599  3.8137 -1.3111 -0.6433
  156EMI    C1' 2954   2.159   3.216   3.691 -0.0910 -0.5571  0.0227
  156EMI    H1' 2955   2.185   3.318   3.659 -1.1110 -2.8018  0.2718
  156EMI    H1' 2956   2.053   3.203   3.695  1.3980 -0.3901  2.7680
  156EMI    H1' 2957   2.191   3.219   3.799  1.0882  0.8631 -0.3751
  156EMI    C1" 2958   2.368   2.910   3.355 -0.0305  0.1472  0.2881
  156EMI    H1" 2959   2.418   2.813   3.372  1.1305 -1.8837 -2.2571
  156EMI    H1" 2960   2.443   2.974   3.308 -1.1235  0.7728 -1.3412
  156EMI    C2" 2961   2.264   2.896   3.247 -0.1894 -0.9964 -0.2167
  156EMI    H2" 2962   2.189   2.838   3.283 -1.8976  1.7835  0.9901
  156EMI    H2" 2963   2.237   2.999   3.214 -1.3957  0.4308 -2.4863
  156EMI    H2" 2964   2.295   2.838   3.152  0.0552  0.6829 -0.0086
  157EMI     N1 2965   0.657   5.718   3.700  0.0489 -0.4699 -0.3015
  157EMI     C2 2966   0.605   5.700   3.820  0.2819  0.4787  0.1152
  157EMI     N3 2967   0.705   5.713   3.908  0.1735 -0.2337  0.5196
  157EMI     C4 2968   0.826   5.718   3.840  0.2957 -0.4957 -0.1709
  157EMI     C5 2969   0.797   5.715   3.711  0.2716  1.1220  0.2400
  157EMI     H2 2970   0.500   5.707   3.849  1.0004 -0.0265  0.3463
  157EMI     H4 2971   0.923   5.735   3.899 -0.7195  1.0532 -0.4155
  157EMI     H5 2972   0.864   5.720   3.636 -1.8510 -0.4649 -0.7949
  157EMI    C1' 2973   0.683   5.729   4.050  0.4636 -0.8622 -0.1755
  157EMI    H1' 2974   0.686   5.627   4.100  0.0425 -1.6871 -1.5714
  157EMI    H1' 2975   0.772   5.775   4.089  1.9934 -0.1408  2.8311
  157EMI    H1' 2976   0.596   5.794   4.063 -0.6383 -2.2574 -0.3978
  157EMI    C1" 2977   0.594   5.719   3.564  0.0153 -0.3527 -0.3600
  157EMI    H1" 2978   0.634   5.630   3.508  1.2265 -2.5230 -1.9335
  157EMI    H1" 2979   0.619   5.812   3.519  1.7583 -0.4389  3.1843
  157EMI    C2" 2980   0.440   5.716   3.567 -0.2030 -0.0832  0.6124
  157EMI    H2" 2981   0.397   5.787   3.639  0.7644 -2.8380  2.1846
  157EMI    H2" 2982   0.404   5.746   3.463  0.6730  1.0237  0.7345
  157EMI    H2" 2983   0.409   5.617   3.598 -0.5528  0.6473  1.8009
  158EMI     N1 2984   1.005   1.883   2.611  1.2538 -0.1725  0.8038
  158EMI     C2 2985   0.914   1.786   2.655 -0.1191 -0.1759  1.4254
  158EMI     N3 2986   0.805   1.793   2.584  0.3878  0.2310 -0.0426
  158EMI     C4 2987   0.828   1.891   2.493 -0.7265  0.1314  0.8218
  158EMI     C5 2988   0.948   1.944   2.505 -0.2047  0.1724  0.1816
  158EMI     H2 2989   0.931   1.721   2.744 -1.6479 -1.8208  1.4861
  158EMI     H4 2990   0.750   1.907   2.420  0.2391 -1.7384 -1.0155
  158EMI     H5 2991   0.990   2.026   2.443 -0.3100 -0.6195  3.0273
  158EMI    C1' 2992   0.682   1.715   2.587  0.3058 -0.0300 -0.9230
  158EMI    H1' 2993   0.633   1.738   2.679  1.7044 -2.2759 -1.2530
  158EMI    H1' 2994   0.615   1.730   2.494 -3.7044  0.8025 -1.1198
  158EMI    H1' 2995   0.710   1.607   2.587  1.0218 -1.4632 -0.2664
  158EMI    C1" 2996   1.142   1.892   2.656 -0.1653 -0.2307 -0.0509
  158EMI    H1" 2997   1.203   1.918   2.568  2.7160 -1.6930  1.3676
  158EMI    H1" 2998   1.165   1.795   2.695  0.6324  0.3510  0.6670
  158EMI    C2" 2999   1.156   1.995   2.768  0.0184 -0.1354 -0.8680
  158EMI    H2" 3000   1.087   1.977   2.854 -0.0875  0.1468  0.2488
  158EMI    H2" 3001   1.247   1.975   2.823 -0.9004  0.2034  1.6948
  158EMI    H2" 3002   1.160   2.094   2.718 -0.3308  0.6383  2.8989
  159EMI     N1 3003   5.761   2.110   6.024  0.2696  0.2706  0.2805
  159EMI     C2 3004   5.864   2.077   5.955  0.1777  1.0339  0.2261
  159EMI     N3 3005   5.958   2.167   5.957 -0.4202  0.5560 -0.4821
  159EMI     C4 3006   5.904   2.269   6.034  0.5518  0.0458 -0.2416
  159EMI     C5 3007   5.782   2.235   6.081 -0.4627 -0.9925  0.1910
  159EMI     H2 3008   5.875   1.986   5.906  0.7195  0.6132 -1.7718
  159EMI     H4 3009   5.956   2.360   6.050 -0.7417 -0.7015  2.3645
  159EMI     H5 3010   5.719   2.290   6.154 -1.2336 -0.7525  0.0753
  159EMI    C1' 3011   6.095   2.172   5.906  0.4330 -0.3783 -0.0961
  159EMI    H1' 3012   6.098   2.116   5.813 -0.9609  1.3128  0.1148
  159EMI    H1' 3013   6.128   2.272   5.891  1.4605  0.4954  2.1544
  159EMI    H1' 3014   6.158   2.120   5.978  1.9315 -0.4052  0.1681
  159EMI    C1" 3015   5.641   2.033   6.056 -0.0580 -0.0923 -0.4140
  159EMI    H1" 3016   5.606   1.983   5.963  1.1198  0.1155  0.8387
  159EMI    H1" 3017   5.569   2.100   6.081  1.4602  0.5881  1.1000
  159EMI    C2" 3018   5.662   1.929   6.158  0.2313  0.4157 -0.4262
  159EMI    H2" 3019   5.733   1.858   6.118 -1.0619 -2.3322 -2.0768
  159EMI    H2" 3020   5.705   1.968   6.244  1.5988 -0.8760 -0.9026
  159EMI    H2" 3021   5.570   1.881   6.183  0.9589 -0.2533  0.4752
  160EMI     N1 3022   3.993   1.644   4.864  0.1793  0.0928 -0.3841
  160EMI     C2 3023   3.941   1.561   4.955 -0.1779 -0.1455  0.2186
  160EMI     N3 3024   4.041   1.494   5.019  1.1254 -0.5223  0.5218
  160EMI     C4 3025   4.159   1.536   4.963 -0.9005 -0.4250  0.3544
  160EMI     C5 3026   4.132   1.632   4.866 -0.3175 -0.1293  0.4917
  160EMI     H2 3027   3.834   1.553   4.984  1.4689  0.7547 -0.3143
  160EMI     H4 3028   4.265   1.512   4.991  1.4984  1.1486  0.1098
  160EMI     H5 3029   4.205   1.677   4.798  0.5960  0.3502  1.2429
  160EMI    C1' 3030   4.030   1.410   5.135 -0.2780  0.1230 -0.1195
  160EMI    H1' 3031   3.949   1.459   5.193  1.2755  0.9848  0.0529
  160EMI    H1' 3032   3.992   1.311   5.112  0.1686  2.1854 -1.6320
  160EMI    H1' 3033   4.131   1.400   5.187  1.0046  3.1702 -0.0985
  160EMI    C1" 3034   3.928   1.730   4.766 -0.6435  1.0611 -0.3841
  160EMI    H1" 3035   3.905   1.676   4.675 -0.1356  2.7534 -1.0762
  160EMI    H1" 3036   3.997   1.814   4.751  3.4203 -0.2722  2.2759
  160EMI    C2" 3037   3.797   1.785   4.820  0.0281  0.0262  0.6405
  160EMI    H2" 3038   3.744   1.841   4.735 -0.6778  0.1465 -1.4490
  160EMI    H2" 3039   3.741   1.697   4.849  1.2906  0.2990  1.9210
  160EMI    H2" 3040   3.810   1.839   4.912 -0.9240 -1.6513  0.1214
  161EMI     N1 3041   1.095   3.237   4.191  0.2135 -0.1035  0.3160
  161EMI     C2 3042   1.119   3.339   4.277 -0.2167  0.1721  0.0372
  161EMI     N3 3043   1.031   3.437   4.264 -0.2065 -0.1366 -0.3432
  161EMI     C4 3044   0.948   3.403   4.159 -0.1807 -0.1878  0.1493
  161EMI     C5 3045   0.981   3.272   4.128 -0.2805 -0.0788 -0.3505
  161EMI     H2 3046   1.199   3.340   4.352 -0.3834  1.0310 -1.1472
  161EMI     H4 3047   0.861   3.457   4.115  0.5203 -0.9722  1.1031
  161EMI     H5 3048   0.919   3.209   4.064  0.3541 -1.3731 -0.4702
  161EMI    C1' 3049   1.037   3.569   4.331 -0.2055  0.0910  0.0028
  161EMI    H1' 3050   0.984   3.562   4.429  2.7498  0.2979  2.4904
  161EMI    H1' 3051   1.139   3.586   4.360  0.3154 -0.4407  1.7917
  161EMI    H1' 3052   1.010   3.651   4.270 -0.8908  2.1628 -1.8566
  161EMI    C1" 3053   1.165   3.116   4.176 -0.5293 -0.5753  0.3531
  161EMI    H1" 3054   1.239   3.109   4.243 -0.7937 -0.2674 -2.8552
  161EMI    H1" 3055   1.211   3.119   4.079 -0.2743 -1.0875  0.0148
  161EMI    C2" 3056   1.072   3.000   4.202 -0.4033 -1.0420 -0.5608
  161EMI    H2" 3057   1.139   2.912   4.206 -2.1398 -1.1527 -0.4716
  161EMI    H2" 3058   1.028   3.012   4.298 -0.0364 -2.1905 -2.0193
  161EMI    H2" 3059   1.007   2.980   4.117 -0.0194 -0.8364 -2.8870
  162EMI     N1 3060   6.435   3.076   1.336 -0.3399  0.5486  0.6215
  162EMI     C2 3061   6.453   2.939   1.354  0.1679 -0.1182  0.0874
  162EMI     N3 3062   6.570   2.900   1.302 -0.2585 -0.2816  0.0472
  162EMI     C4 3063   6.631   3.015   1.259 -1.0256 -0.3132  0.4738
  162EMI     C5 3064   6.549   3.123   1.284 -0.6403 -0.1071  0.6132
  162EMI     H2 3065   6.379   2.873   1.398 -0.5911 -2.9619  0.7094
  162EMI     H4 3066   6.728   3.015   1.207 -0.2660  1.6267  1.4038
  162EMI     H5 3067   6.567   3.221   1.264  2.1436 -0.6377  0.3312
  162EMI    C1' 3068   6.636   2.768   1.287  0.1970 -0.1426 -0.4180
  162EMI    H1' 3069   6.565   2.691   1.272  0.4766  0.7134 -1.3625
  162EMI    H1' 3070   6.715   2.772   1.205  1.1577 -0.3531 -3.3174
  162EMI    H1' 3071   6.689   2.750   1.381 -0.7647 -1.2951 -2.1503
  162EMI    C1" 3072   6.320   3.155   1.372  0.2819 -0.5704  0.3986
  162EMI    H1" 3073   6.351   3.238   1.434 -0.3003  1.5989  0.8440
  162EMI    H1" 3074   6.257   3.084   1.423 -0.2050  1.0411  2.4469
  162EMI    C2" 3075   6.260   3.222   1.246  0.0500  0.2897 -0.1988
  162EMI    H2" 3076   6.233   3.147   1.165  1.0053 -2.7423 -1.8770
  162EMI    H2" 3077   6.167   3.266   1.281  0.5123 -2.0711 -0.2092
  162EMI    H2" 3078   6.320   3.312   1.216 -0.5312 -0.6184 -2.0579
  163EMI     N1 3079   3.618   0.673   5.160 -0.1585  0.5851 -0.2255
  163EMI     C2 3080   3.677   0.671   5.283 -0.0696 -0.0018 -0.4103
  163EMI     N3 3081   3.632   0.570   5.357 -0.0064  0.3374 -0.6901
  163EMI     C4 3082   3.521   0.519   5.285 -0.1309 -0.7894  0.3264
  163EMI     C5 3083   3.513   0.582   5.167 -0.0309 -0.7142 -0.2309
  163EMI     H2 3084   3.761   0.735   5.309 -0.8215 -1.5427 -5.3220
  163EMI     H4 3085   3.460   0.439   5.316  2.9945 -1.8218  0.5759
  163EMI     H5 3086   3.443   0.559   5.090 -0.0048  2.1110 -0.6523
  163EMI    C1' 3087   3.658   0.545   5.495  0.2676 -0.4450  0.1603
  163EMI    H1' 3088   3.577   0.572   5.563 -0.0280  0.8809  1.8897
  163EMI    H1' 3089   3.681   0.438   5.488  0.4255 -2.2765 -0.1589
  163EMI    H1' 3090   3.749   0.599   5.522  1.4648  1.8064 -1.2833
  163EMI    C1" 3091   3.643   0.752   5.041 -0.1489  0.4300  0.1024
  163EMI    H1" 3092   3.563   0.734   4.968  0.6505  0.1127  1.1457
  163EMI    H1" 3093   3.739   0.722   4.996  1.3526  0.3675 -2.0956
  163EMI    C2" 3094   3.635   0.899   5.082  0.7183 -0.2265 -0.8335
  163EMI    H2" 3095   3.642   0.952   4.993 -0.6403  2.4191 -1.3657
  163EMI    H2" 3096   3.539   0.927   5.126 -0.3589 -2.2723  0.0360
  163EMI    H2" 3097   3.718   0.924   5.149  0.9641  0.4503 -0.0545
  164EMI     N1 3098   6.287   5.242   3.569 -0.7548  0.2048  0.1612
  164EMI     C2 3099   6.235   5.248   3.696 -0.1633 -0.4037 -0.1995
  164EMI     N3 3100   6.226   5.119   3.743 -0.1015 -0.4162  0.5024
  164EMI     C4 3101   6.279   5.039   3.647  0.1558 -0.0477 -0.0781
  164EMI     C5 3102   6.313   5.111   3.539 -0.4084 -0.5346 -0.3228
  164EMI     H2 3103   6.188   5.336   3.742 -0.8411  0.1981 -2.6804
  164EMI     H4 3104   6.303   4.935   3.658 -0.1776 -0.3633  1.3938
  164EMI     H5 3105   6.347   5.071   3.444 -1.3527 -1.1971  0.7064
  164EMI    C1' 3106   6.175   5.057   3.869 -1.4664  0.2790  0.0455
  164EMI    H1' 3107   6.255   5.022   3.934  2.2227  0.4742  0.1809
  164EMI    H1' 3108   6.124   5.126   3.925  2.2104 -0.1130 -0.3009
  164EMI    H1' 3109   6.105   4.973   3.845  2.5810 -0.5819  0.2444
  164EMI    C1" 3110   6.319   5.346   3.480 -0.2065  0.6517  0.6339
  164EMI    H1" 3111   6.286   5.443   3.517  1.2891  2.0713  3.4625
  164EMI    H1" 3112   6.261   5.336   3.392 -0.7087 -1.5135  0.1777
  164EMI    C2" 3113   6.465   5.367   3.432 -0.3387 -0.7052 -0.7918
  164EMI    H2" 3114   6.512   5.420   3.515  0.1934 -1.2687  2.4407
  164EMI    H2" 3115   6.508   5.265   3.402 -0.7516  1.0757 -2.2039
  164EMI    H2" 3116   6.466   5.420   3.335  1.9860  1.0694 -2.2167
  165EMI     N1 3117   4.030   2.420   3.826 -0.0668  0.5055 -0.0418
  165EMI     C2 3118   3.930   2.417   3.908 -0.2469  0.9386 -0.3156
  165EMI     N3 3119   3.819   2.461   3.851 -0.1166 -0.1072 -0.3395
  165EMI     C4 3120   3.849   2.502   3.726 -0.4611  0.4324  0.9052
  165EMI     C5 3121   3.981   2.475   3.707  0.4131  0.3614  0.5493
  165EMI     H2 3122   3.944   2.374   4.009  2.6403 -3.7765  0.1463
  165EMI     H4 3123   3.782   2.548   3.655 -0.8846 -0.5183  1.6537
  165EMI     H5 3124   4.044   2.503   3.625  0.6948  0.2764 -0.1073
  165EMI    C1' 3125   3.688   2.487   3.919 -0.1025  0.0599  0.5728
  165EMI    H1' 3126   3.702   2.570   3.986  0.2726 -1.2782 -0.3523
  165EMI    H1' 3127   3.608   2.498   3.845  1.1211  2.9076 -1.9271
  165EMI    H1' 3128   3.663   2.396   3.968  0.3027 -1.1199  0.7657
  165EMI    C1" 3129   4.169   2.376   3.838  1.3081 -0.7361  0.9783
  165EMI    H1" 3130   4.221   2.423   3.920  0.9019  1.6298  0.1281
  165EMI    H1" 3131   4.217   2.424   3.757 -0.2919 -1.4787  0.9144
  165EMI    C2" 3132   4.195   2.230   3.830  0.2285 -0.3266 -0.2696
  165EMI    H2" 3133   4.302   2.220   3.811 -2.3082 -2.4679 -0.5759
  165EMI    H2" 3134   4.172   2.189   3.926 -1.8931  1.4100  1.5824
  165EMI    H2" 3135   4.146   2.192   3.744  0.4079  0.9745 -0.5581
  166EMI     N1 3136   0.826   0.263   0.202 -0.0617 -0.1904 -0.3181
  166EMI     C2 3137   0.821   0.129   0.182  0.2041 -0.1689 -0.3449
  166EMI     N3 3138   0.932   0.088   0.111 -0.5756  0.0562 -0.0325
  166EMI     C4 3139   1.014   0.201   0.100  0.3770  0.2736  0.6303
  166EMI     C5 3140   0.948   0.304   0.150 -0.0272 -0.3411  0.2576
  166EMI     H2 3141   0.741   0.065   0.229 -1.5982  0.0977 -1.0670
  166EMI     H4 3142   1.109   0.208   0.048  3.4431  1.3098  0.2474
  166EMI     H5 3143   0.985   0.407   0.146  0.2498  0.7396 -3.9036
  166EMI    C1' 3144   0.976  -0.048   0.071  0.7920 -0.4978  0.1926
  166EMI    H1' 3145   0.983  -0.106   0.160  2.0021 -0.4631  1.3176
  166EMI    H1' 3146   0.906  -0.093   0.002 -0.5449  0.0761  0.3458
  166EMI    H1' 3147   1.074  -0.052   0.025  1.2621 -0.3811  0.3086
  166EMI    C1" 3148   0.727   0.367   0.263  0.3283  0.1493  0.2334
  166EMI    H1" 3149   0.777   0.462   0.274  0.0619  4.2126 -1.7952
  166EMI    H1" 3150   0.700   0.336   0.363  1.7114 -0.0630 -0.2205
  166EMI    C2" 3151   0.599   0.379   0.186  0.2089 -0.5043  0.2532
  166EMI    H2" 3152   0.536   0.473   0.210 -2.4407 -0.4470  0.0851
  166EMI    H2" 3153   0.626   0.381   0.084 -2.8464  0.7250 -2.2789
  166EMI    H2" 3154   0.541   0.288   0.198 -0.8479 -0.2189  0.7146
  167EMI     N1 3155   5.032   0.399   5.723  0.0339 -0.1786 -0.3869
  167EMI     C2 3156   4.905   0.389   5.669  0.0531 -0.4119 -0.3095
  167EMI     N3 3157   4.874   0.505   5.612 -0.0624  0.7661  0.0412
  167EMI     C4 3158   4.987   0.580   5.606  0.2224 -0.2209 -0.9720
  167EMI     C5 3159   5.078   0.523   5.687  0.2736  0.3943 -0.6584
  167EMI     H2 3160   4.823   0.310   5.679  0.3650  1.9451 -2.5068
  167EMI     H4 3161   5.006   0.678   5.559  0.1115 -2.6484 -0.1603
  167EMI     H5 3162   5.179   0.553   5.695 -0.5560 -0.6715  0.6098
  167EMI    C1' 3163   4.747   0.543   5.545 -0.0022 -0.4242  0.1178
  167EMI    H1' 3164   4.663   0.542   5.619 -1.4210 -0.5490 -0.3415
  167EMI    H1' 3165   4.752   0.642   5.505  0.2512 -1.0401 -0.8268
  167EMI    H1' 3166   4.740   0.481   5.458  1.2892  1.2190 -1.0978
  167EMI    C1" 3167   5.130   0.308   5.791  0.1517 -0.4740 -0.1763
  167EMI    H1" 3168   5.215   0.368   5.817 -1.4290  0.4313 -0.2756
  167EMI    H1" 3169   5.161   0.224   5.724  0.5161 -2.7938 -1.3215
  167EMI    C2" 3170   5.068   0.251   5.913  0.7304 -0.0282  0.3005
  167EMI    H2" 3171   4.976   0.193   5.898 -0.5056  0.7514 -2.3282
  167EMI    H2" 3172   5.136   0.186   5.963  0.9125 -0.9164 -0.7640
  167EMI    H2" 3173   5.037   0.322   5.990  0.8048 -1.2886 -1.3378
  168EMI     N1 3174   0.385   4.081   2.846 -0.3061  0.0572  0.0896
  168EMI     C2 3175   0.290   3.984   2.832 -0.0859  0.2443  0.9203
  168EMI     N3 3176   0.309   3.934   2.708  0.4726 -0.0159  0.4193
  168EMI     C4 3177   0.409   4.001   2.639  0.2660 -0.0171  0.5037
  168EMI     C5 3178   0.462   4.085   2.732  0.2059 -0.7229 -0.8628
  168EMI     H2 3179   0.211   3.967   2.904  2.7315  2.3150 -0.4036
  168EMI     H4 3180   0.439   3.972   2.539  0.2194  0.8185  1.1487
  168EMI     H5 3181   0.549   4.139   2.714 -4.3019  0.8755 -0.4279
  168EMI    C1' 3182   0.250   3.812   2.653 -0.3710  0.1508 -0.2024
  168EMI    H1' 3183   0.147   3.835   2.624  0.0332 -2.5475  1.9337
  168EMI    H1' 3184   0.313   3.781   2.573  1.8124 -0.6393 -0.5472
  168EMI    H1' 3185   0.256   3.741   2.740 -2.5853 -0.2024  2.8190
  168EMI    C1" 3186   0.396   4.186   2.946  0.4423  0.1553 -0.1450
  168EMI    H1" 3187   0.490   4.234   2.936  0.3606 -0.5392 -0.4126
  168EMI    H1" 3188   0.388   4.139   3.043 -2.1950 -0.2082 -0.5315
  168EMI    C2" 3189   0.283   4.287   2.932 -1.0846 -0.3038 -0.1573
  168EMI    H2" 3190   0.305   4.376   2.990  1.8164  0.3889 -1.7739
  168EMI    H2" 3191   0.269   4.318   2.828 -0.6634  1.7558 -0.0813
  168EMI    H2" 3192   0.187   4.237   2.957  2.8478 -2.6378 -3.5383
  169EMI     N1 3193   2.095   6.320   1.111 -0.2010 -0.2996  0.3486
  169EMI     C2 3194   2.094   6.369   1.233  0.1755 -0.2378 -0.6944
  169EMI     N3 3195   2.082   6.506   1.231  0.4641  0.1677 -0.0665
  169EMI     C4 3196   2.070   6.542   1.099  0.0357 -0.4824  0.1643
  169EMI     C5 3197   2.088   6.432   1.027 -0.0772  0.3425  0.3606
  169EMI     H2 3198   2.106   6.306   1.321  1.9210 -3.0565  0.6020
  169EMI     H4 3199   2.058   6.639   1.057  1.9985  0.0120 -1.7879
  169EMI     H5 3200   2.099   6.423   0.914 -0.4845 -2.5092 -1.0977
  169EMI    C1' 3201   2.068   6.602   1.339 -0.2713  0.9070  0.1590
  169EMI    H1' 3202   2.056   6.700   1.293  2.5891  2.3589 -1.3629
  169EMI    H1' 3203   1.982   6.587   1.399  0.9310 -0.9345  0.5535
  169EMI    H1' 3204   2.156   6.585   1.399 -0.8139  3.2705  0.7815
  169EMI    C1" 3205   2.101   6.175   1.056 -0.5364  0.2074  0.3950
  169EMI    H1" 3206   2.151   6.179   0.963  1.1615 -0.0750 -0.8423
  169EMI    H1" 3207   2.002   6.138   1.035  2.5686  1.1435 -0.7765
  169EMI    C2" 3208   2.175   6.077   1.148 -0.4347 -0.2305 -1.1400
  169EMI    H2" 3209   2.164   5.980   1.106 -1.3313  1.1161 -0.4875
  169EMI    H2" 3210   2.283   6.108   1.159  0.9559 -3.0961  3.6881
  169EMI    H2" 3211   2.128   6.085   1.246 -1.6883 -0.9342  0.3177
  170EMI     N1 3212   0.321   1.518   1.869 -0.0034  0.7409 -0.1682
  170EMI     C2 3213   0.383   1.485   1.987 -0.4195  0.1342  0.2712
  170EMI     N3 3214   0.381   1.592   2.066 -0.1323  0.2121 -0.0290
  170EMI     C4 3215   0.317   1.687   1.995  0.2706  0.1854 -0.0511
  170EMI     C5 3216   0.283   1.646   1.875  0.5069  0.4922  0.4312
  170EMI     H2 3217   0.420   1.389   2.018 -2.3137 -0.3935 -1.3148
  170EMI     H4 3218   0.304   1.785   2.033 -0.6011  3.0107 -2.3808
  170EMI     H5 3219   0.242   1.703   1.789 -3.8202 -1.1914 -1.5935
  170EMI    C1' 3220   0.439   1.618   2.199 -0.4225  0.1050 -0.9221
  170EMI    H1' 3221   0.363   1.637   2.273 -1.6353  1.9632 -2.3781
  170EMI    H1' 3222   0.481   1.525   2.227 -0.3016  1.1667  1.2839
  170EMI    H1' 3223   0.521   1.690   2.186  0.4740 -1.2779 -2.4375
  170EMI    C1" 3224   0.265   1.432   1.765 -0.1562  0.1703  0.0828
  170EMI    H1" 3225   0.300   1.326   1.773 -1.3296 -0.3518  1.3241
  170EMI    H1" 3226   0.274   1.471   1.663 -0.7553 -0.5665  2.2603
  170EMI    C2" 3227   0.116   1.417   1.772  0.9324 -0.0589 -0.1731
  170EMI    H2" 3228   0.080   1.387   1.870  0.0379  0.1401 -2.5305
  170EMI    H2" 3229   0.065   1.506   1.745  2.9907 -1.2328  0.1358
  170EMI    H2" 3230   0.078   1.341   1.697 -1.5936 -1.7684 -0.3708
  171EMI     N1 3231   4.892   6.092   2.310  0.7329 -0.6236  0.0755
  171EMI     C2 3232   4.974   6.052   2.216 -0.7775  0.0618 -0.0669
  171EMI     N3 3233   5.015   6.158   2.150  0.2609  0.0269 -0.8217
  171EMI     C4 3234   4.953   6.270   2.198 -0.0016  0.6766  0.2239
  171EMI     C5 3235   4.875   6.233   2.302  0.0635  0.3923  0.3618
  171EMI     H2 3236   5.015   5.953   2.205  1.1192 -0.3659  3.2098
  171EMI     H4 3237   4.968   6.373   2.165  2.1894  1.2497 -1.0212
  171EMI     H5 3238   4.822   6.294   2.374 -2.0549 -0.5150  3.4491
  171EMI    C1' 3239   5.127   6.168   2.058  0.3767 -0.0188  0.4326
  171EMI    H1' 3240   5.097   6.139   1.961 -1.7953  0.5213  2.3997
  171EMI    H1' 3241   5.156   6.271   2.045 -3.3561  0.9536 -1.2926
  171EMI    H1' 3242   5.207   6.102   2.083 -0.6442  0.9251 -3.1479
  171EMI    C1" 3243   4.810   6.010   2.413 -0.5959 -0.3496 -0.0576
  171EMI    H1" 3244   4.779   5.915   2.360  0.5545  1.6159 -0.3104
  171EMI    H1" 3245   4.717   6.061   2.440  1.3208 -0.7277  2.3406
  171EMI    C2" 3246   4.892   5.986   2.540 -0.2902 -0.5623 -0.0036
  171EMI    H2" 3247   4.839   5.917   2.607 -1.0868  0.0002  0.9954
  171EMI    H2" 3248   4.987   5.940   2.522 -0.6088 -0.5404  2.7314
  171EMI    H2" 3249   4.914   6.083   2.587 -2.5424  2.1376 -0.7268
  172EMI     N1 3250   0.093   5.835   6.173  0.0746 -0.3482 -0.2377
  172EMI     C2 3251   0.021   5.930   6.108 -0.2566 -0.3238  0.2909
  172EMI     N3 3252  -0.110   5.896   6.126 -0.7447 -0.4591 -0.6336
  172EMI     C4 3253  -0.115   5.788   6.210 -1.0691  0.2749  0.4903
  172EMI     C5 3254   0.009   5.754   6.241  0.0244 -0.2553 -0.0592
  172EMI     H2 3255   0.056   6.009   6.039  2.5822  0.8647  0.7390
  172EMI     H4 3256  -0.208   5.739   6.251 -0.5930  0.3654 -3.2884
  172EMI     H5 3257   0.035   5.677   6.304 -0.9886 -1.0055  0.4901
  172EMI    C1' 3258  -0.227   5.961   6.063 -0.5771  0.7794  0.6725
  172EMI    H1' 3259  -0.304   5.993   6.129 -0.5085 -2.3290 -1.8845
  172EMI    H1' 3260  -0.177   6.045   6.019 -0.2128 -2.2396  0.6456
  172EMI    H1' 3261  -0.264   5.894   5.980  0.0372  2.5748 -0.2247
  172EMI    C1" 3262   0.244   5.825   6.167  0.7448 -0.0708 -0.0402
  172EMI    H1" 3263   0.275   5.762   6.080 -0.3146  1.5691  0.8215
  172EMI    H1" 3264   0.279   5.776   6.260 -1.4736  1.1730  0.5699
  172EMI    C2" 3265   0.317   5.958   6.150  0.0713  0.4792  0.2032
  172EMI    H2" 3266   0.366   5.955   6.048 -0.0612  0.6098  0.5811
  172EMI    H2" 3267   0.259   6.044   6.145  4.5383  0.6066 -1.1269
  172EMI    H2" 3268   0.392   5.949   6.239  2.5521 -2.3143  0.0077
  173EMI     N1 3269   2.649   5.903   1.836 -0.5312 -0.1026  0.5413
  173EMI     C2 3270   2.677   6.004   1.747  0.4506  0.2366  0.5319
  173EMI     N3 3271   2.562   6.068   1.717  0.1329 -0.1893 -0.3431
  173EMI     C4 3272   2.465   6.024   1.805  0.1221  0.4813 -0.2230
  173EMI     C5 3273   2.517   5.924   1.878  0.8710 -0.3214 -0.2049
  173EMI     H2 3274   2.778   6.030   1.715 -0.4518 -0.3968 -0.8056
  173EMI     H4 3275   2.356   6.055   1.798 -0.0556 -0.9451  0.8324
  173EMI     H5 3276   2.472   5.857   1.951 -1.9826 -0.6141  1.6139
  173EMI    C1' 3277   2.536   6.177   1.622 -0.0065  0.9509 -0.0316
  173EMI    H1' 3278   2.453   6.150   1.555 -0.5477  0.4450 -1.3148
  173EMI    H1' 3279   2.506   6.271   1.668 -2.3792 -0.5600 -2.1520
  173EMI    H1' 3280   2.624   6.194   1.564  0.4033 -0.8118 -1.6108
  173EMI    C1" 3281   2.752   5.827   1.907 -0.1263 -0.2781  0.3080
  173EMI    H1" 3282   2.766   5.883   1.997 -1.1806 -0.6486  1.3415
  173EMI    H1" 3283   2.835   5.842   1.842 -0.1616  0.9770 -1.1851
  173EMI    C2" 3284   2.716   5.680   1.931 -0.0543 -0.2361  0.4662
  173EMI    H2" 3285   2.800   5.632   1.978  1.3372 -0.3399 -2.2200
  173EMI    H2" 3286   2.620   5.670   1.980 -2.0545 -0.5826 -0.9965
  173EMI    H2" 3287   2.707   5.620   1.837  2.1119 -1.2157 -0.2607
  174EMI     N1 3288   0.202   0.735   3.507 -0.3008 -0.0265  0.1518
  174EMI     C2 3289   0.310   0.691   3.441 -1.0143 -0.6873 -0.0456
  174EMI     N3 3290   0.345   0.787   3.360 -0.4780 -0.9560  0.0329
  174EMI     C4 3291   0.252   0.886   3.358 -0.2887  0.0605 -0.0478
  174EMI     C5 3292   0.167   0.855   3.451  0.8359 -0.0303  0.0571
  174EMI     H2 3293   0.355   0.594   3.450 -1.4900  0.9521  0.4708
  174EMI     H4 3294   0.248   0.979   3.306 -0.6886 -1.2449  0.8205
  174EMI     H5 3295   0.090   0.926   3.479  0.5782  0.3851 -0.6962
  174EMI    C1' 3296   0.450   0.773   3.261 -0.0044  0.0393 -0.4378
  174EMI    H1' 3297   0.548   0.770   3.318  2.0409  1.0838 -0.1112
  174EMI    H1' 3298   0.428   0.681   3.204 -1.2082 -0.8145  0.3628
  174EMI    H1' 3299   0.456   0.856   3.187  0.1736  0.6282  0.3418
  174EMI    C1" 3300   0.117   0.666   3.600 -0.7699 -0.3532 -1.1349
  174EMI    H1" 3301   0.169   0.582   3.645  1.1132 -1.6374  0.8575
  174EMI    H1" 3302   0.021   0.636   3.555 -2.6586  2.2378 -1.0312
  174EMI    C2" 3303   0.073   0.759   3.713 -0.2816 -0.4027 -0.3953
  174EMI    H2" 3304   0.004   0.711   3.779  1.8400 -3.9140 -0.8866
  174EMI    H2" 3305   0.168   0.793   3.763 -0.9292  2.9388 -0.2363
  174EMI    H2" 3306   0.027   0.847   3.665 -0.4391 -0.9302  1.1590
  175EMI     N1 3307   0.075   5.694   1.494 -0.0436 -0.2755  0.4106
  175EMI     C2 3308  -0.047   5.674   1.555  0.3398  0.1824  0.4475
  175EMI     N3 3309  -0.106   5.564   1.496 -0.0509 -0.1056 -0.4992
  175EMI     C4 3310  -0.033   5.539   1.380 -0.1966  0.0627  0.3648
  175EMI     C5 3311   0.080   5.611   1.383  0.0295 -0.2408  0.5798
  175EMI     H2 3312  -0.092   5.717   1.642  2.3995 -1.8850  1.7412
  175EMI     H4 3313  -0.038   5.467   1.296  2.4376  2.9042 -0.6244
  175EMI     H5 3314   0.161   5.614   1.316  1.5864  0.9537 -0.3639
  175EMI    C1' 3315  -0.227   5.492   1.535 -0.7789  0.0746 -0.1075
  175EMI    H1' 3316  -0.246   5.492   1.642 -0.7896  0.4267  0.0022
  175EMI    H1' 3317  -0.306   5.553   1.489 -0.9884  0.1572 -0.9560
  175EMI    H1' 3318  -0.221   5.390   1.498 -1.9051 -0.9786 -1.4975
  175EMI    C1" 3319   0.181   5.790   1.531  1.5792  0.3161  0.2179
  175EMI    H1" 3320   0.276   5.751   1.528  2.8162 -0.0019 -0.7347
  175EMI    H1" 3321   0.150   5.806   1.634 -0.4404 -0.9944  1.0734
  175EMI    C2" 3322   0.190   5.914   1.436  0.9315  0.3954  0.5444
  175EMI    H2" 3323   0.099   5.972   1.423  0.5384  0.6796  1.4193
  175EMI    H2" 3324   0.264   5.985   1.481 -2.1705 -1.6501 -0.7047
  175EMI    H2" 3325   0.212   5.876   1.336 -0.2276 -2.2251 -0.3262
  176EMI     N1 3326   3.800   2.262   2.424 -0.9987 -0.2866  0.0519
  176EMI     C2 3327   3.883   2.361   2.456 -0.5955  1.2060 -0.7489
  176EMI     N3 3328   3.918   2.426   2.347  0.2674 -0.7506  0.1408
  176EMI     C4 3329   3.836   2.380   2.249  0.2700  0.0617  0.4524
  176EMI     C5 3330   3.762   2.288   2.301  0.0038 -0.3088  0.3595
  176EMI     H2 3331   3.927   2.380   2.551  1.5413  0.0742 -0.0718
  176EMI     H4 3332   3.838   2.404   2.139  2.6020  2.6807 -3.7322
  176EMI     H5 3333   3.688   2.221   2.256 -2.8614  0.5673 -0.6320
  176EMI    C1' 3334   4.022   2.531   2.321 -0.0631 -0.0986 -0.4367
  176EMI    H1' 3335   4.118   2.507   2.371 -4.6117 -1.6018 -0.8889
  176EMI    H1' 3336   4.033   2.540   2.212  0.7459  1.6592 -4.0832
  176EMI    H1' 3337   3.991   2.627   2.361  0.5447 -0.8347  3.2286
  176EMI    C1" 3338   3.760   2.135   2.490  0.4117  0.2865 -0.2757
  176EMI    H1" 3339   3.852   2.075   2.478 -0.0289  0.6691 -0.0547
  176EMI    H1" 3340   3.678   2.086   2.438  0.3522  2.2510 -0.5177
  176EMI    C2" 3341   3.706   2.150   2.631 -0.0447  0.0794 -0.1809
  176EMI    H2" 3342   3.767   2.205   2.701  0.3282  0.5348 -4.7900
  176EMI    H2" 3343   3.605   2.195   2.633 -2.7424 -1.1305 -0.8409
  176EMI    H2" 3344   3.688   2.062   2.679 -0.5662  2.6920 -0.1727
  177EMI     N1 3345   4.215   2.206   2.337  0.4188  0.3188 -0.7317
  177EMI     C2 3346   4.189   2.204   2.200  0.0079 -0.2261  0.0960
  177EMI     N3 3347   4.084   2.116   2.181  0.0992 -0.2597  0.0455
  177EMI     C4 3348   4.047   2.074   2.304 -0.0610  0.4163 -0.2860
  177EMI     C5 3349   4.125   2.128   2.401 -0.3518  0.1291 -0.1666
  177EMI     H2 3350   4.246   2.268   2.130  3.8907  0.0198 -2.8118
  177EMI     H4 3351   3.964   2.001   2.318 -1.9315 -1.7387 -0.1955
  177EMI     H5 3352   4.111   2.111   2.508  1.8917 -0.9890 -1.6786
  177EMI    C1' 3353   4.013   2.077   2.055 -0.5388 -0.3939  0.1324
  177EMI    H1' 3354   4.068   2.125   1.975 -0.5608  1.7905  1.8114
  177EMI    H1' 3355   4.021   1.970   2.034  0.6553  1.2127 -0.4492
  177EMI    H1' 3356   3.910   2.114   2.050 -0.0793  1.2446 -0.7333
  177EMI    C1" 3357   4.319   2.272   2.419 -0.5394  0.1087  0.5795
  177EMI    H1" 3358   4.272   2.333   2.494  1.3343 -2.0528 -1.6040
  177EMI    H1" 3359   4.364   2.347   2.361  0.9394  0.9558 -0.8093
  177EMI    C2" 3360   4.428   2.175   2.478  0.4419 -0.2070  0.9267
  177EMI    H2" 3361   4.510   2.240   2.525  0.6798 -0.5435  2.0865
  177EMI    H2" 3362   4.388   2.118   2.561 -1.6425 -0.4957 -0.8220
  177EMI    H2" 3363   4.472   2.118   2.395  2.1367  0.3894  0.0393
  178EMI     N1 3364   6.098   6.647   5.477 -0.2273  0.5661  0.1631
  178EMI     C2 3365   6.167   6.587   5.375 -0.0340  0.0974 -0.0567
  178EMI     N3 3366   6.264   6.520   5.424 -0.1979  0.2543  0.5493
  178EMI     C4 3367   6.262   6.538   5.557  0.2973  0.1440 -0.5642
  178EMI     C5 3368   6.157   6.613   5.592  0.7791 -0.0311  0.8156
  178EMI     H2 3369   6.149   6.588   5.266  1.3214  0.1603  0.9538
  178EMI     H4 3370   6.335   6.488   5.625  0.1149 -0.5715 -0.1876
  178EMI     H5 3371   6.136   6.633   5.694 -0.2296  0.0012  0.9704
  178EMI    C1' 3372   6.382   6.453   5.361 -0.0732  0.4708  0.3040
  178EMI    H1' 3373   6.463   6.445   5.429  0.6651  1.1605 -4.1118
  178EMI    H1' 3374   6.352   6.357   5.320  0.0593  0.9616 -1.4429
  178EMI    H1' 3375   6.405   6.525   5.281 -0.5796  1.0838 -0.2637
  178EMI    C1" 3376   5.979   6.738   5.459 -0.4063  0.4649 -0.1491
  178EMI    H1" 3377   6.005   6.830   5.402  1.3051  1.4712 -0.0116
  178EMI    H1" 3378   5.950   6.762   5.557  1.5392  1.3038  1.1626
  178EMI    C2" 3379   5.868   6.672   5.386  0.5360 -0.4267  0.0964
  178EMI    H2" 3380   5.781   6.736   5.392 -0.6794  2.6239 -0.1845
  178EMI    H2" 3381   5.894   6.632   5.286 -2.0759  0.3136 -0.0335
  178EMI    H2" 3382   5.836   6.585   5.440 -1.2159 -0.6297 -0.7467
  179EMI     N1 3383   5.778   4.173   3.271  0.6089 -0.2359  0.3172
  179EMI     C2 3384   5.679   4.200   3.353  0.0313 -0.2212  0.5684
  179EMI     N3 3385   5.703   4.146   3.476 -0.3604  0.5132  0.5913
  179EMI     C4 3386   5.818   4.071   3.461 -0.6523 -0.5080 -0.0595
  179EMI     C5 3387   5.864   4.092   3.335  0.0512  0.1953 -0.7633
  179EMI     H2 3388   5.606   4.275   3.333  2.4198  1.1734 -1.2970
  179EMI     H4 3389   5.862   4.015   3.535  0.5230  2.2499 -0.0220
  179EMI     H5 3390   5.939   4.036   3.290 -3.6374  1.6788 -3.7685
  179EMI    C1' 3391   5.615   4.143   3.600 -0.3110 -0.5732 -0.1797
  179EMI    H1' 3392   5.642   4.046   3.650 -1.5424  1.3329 -1.6441
  179EMI    H1' 3393   5.644   4.237   3.654  0.4568  1.2415  1.3441
  179EMI    H1' 3394   5.507   4.155   3.571 -4.1088  0.7259  1.8894
  179EMI    C1" 3395   5.797   4.216   3.133  0.6551 -0.4544  0.3059
  179EMI    H1" 3396   5.888   4.171   3.094  2.2269 -0.0813  0.0900
  179EMI    H1" 3397   5.825   4.320   3.133 -0.3053  0.3690 -0.5131
  179EMI    C2" 3398   5.681   4.188   3.039  0.3761  0.0230 -0.4585
  179EMI    H2" 3399   5.643   4.089   3.052 -0.5415  3.3577  0.5366
  179EMI    H2" 3400   5.593   4.245   3.068  1.5080 -0.2600  0.8257
  179EMI    H2" 3401   5.699   4.200   2.932 -1.8050  0.1363  1.4348
  180EMI     N1 3402   1.092   4.478   6.773 -0.1360  0.4055  0.2208
  180EMI     C2 3403   1.223   4.526   6.773 -1.0328  0.2103  0.1777
  180EMI     N3 3404   1.311   4.431   6.798  0.5549  0.2429 -0.6402
  180EMI     C4 3405   1.238   4.315   6.810 -0.1950 -0.1990  0.3520
  180EMI     C5 3406   1.109   4.341   6.804  0.7523 -0.4005  0.2948
  180EMI     H2 3407   1.250   4.631   6.758 -3.0366  2.5112 -1.2967
  180EMI     H4 3408   1.281   4.216   6.824 -0.4712  0.1997 -2.3671
  180EMI     H5 3409   1.035   4.267   6.813 -0.6396  0.3904  1.1214
  180EMI    C1' 3410   1.459   4.439   6.807 -0.5986 -0.4293  0.7967
  180EMI    H1' 3411   1.486   4.467   6.704 -0.6561  0.8158 -2.0029
  180EMI    H1' 3412   1.497   4.513   6.872  0.9152 -0.7834 -0.6507
  180EMI    H1' 3413   1.511   4.343   6.826 -1.9231 -3.2972 -1.1627
  180EMI    C1" 3414   0.961   4.543   6.758  0.6489  0.4692  0.0111
  180EMI    H1" 3415   0.969   4.645   6.784  0.3220 -3.2583 -1.2203
  180EMI    H1" 3416   0.881   4.487   6.811 -0.8987  1.3965  2.4399
  180EMI    C2" 3417   0.918   4.536   6.614  0.0877 -0.2613 -1.0862
  180EMI    H2" 3418   0.812   4.528   6.621  0.5990  0.4296 -0.6532
  180EMI    H2" 3419   0.934   4.632   6.571  1.6625 -1.7644  0.5494
  180EMI    H2" 3420   0.954   4.446   6.576  0.7951 -2.6448 -0.5747
  181EMI     N1 3421   1.474   4.452   4.666 -0.1643  0.2982  0.5622
  181EMI     C2 3422   1.532   4.562   4.613 -0.3034 -0.0729 -0.1247
  181EMI     N3 3423   1.510   4.675   4.688  0.3149 -0.0221  0.0742
  181EMI     C4 3424   1.438   4.628   4.800  0.2827  0.0494 -1.3230
  181EMI     C5 3425   1.422   4.494   4.787  0.0283  0.0989 -0.2753
  181EMI     H2 3426   1.574   4.563   4.513  1.6626  2.0210  0.6493
  181EMI     H4 3427   1.393   4.688   4.878  2.0376  0.5048 -0.8206
  181EMI     H5 3428   1.368   4.430   4.851 -0.8291 -0.1701 -1.7032
  181EMI    C1' 3429   1.535   4.812   4.674  0.0052  0.5773 -0.6100
  181EMI    H1' 3430   1.436   4.859   4.677  0.5580 -4.0051  1.6336
  181EMI    H1' 3431   1.596   4.858   4.754 -2.6458  2.0633 -1.4449
  181EMI    H1' 3432   1.584   4.834   4.584 -0.8627  0.4853  1.0071
  181EMI    C1" 3433   1.446   4.320   4.604  0.5491 -0.4938 -0.1456
  181EMI    H1" 3434   1.399   4.325   4.503 -0.6463 -0.3723 -1.6774
  181EMI    H1" 3435   1.391   4.262   4.678  0.6286  1.4208  1.0775
  181EMI    C2" 3436   1.581   4.244   4.588 -0.3103  0.3859 -0.4333
  181EMI    H2" 3437   1.636   4.302   4.513 -0.4169  1.7644  0.4617
  181EMI    H2" 3438   1.647   4.239   4.681 -0.5446 -1.1687  0.4767
  181EMI    H2" 3439   1.562   4.146   4.561  1.1414  3.5693 -0.4714
  182EMI     N1 3440   1.934   0.876   6.364  0.1945  0.6236  0.1618
  182EMI     C2 3441   1.999   0.759   6.353  0.1245  0.4219 -0.6704
  182EMI     N3 3442   2.043   0.712   6.474  0.1970 -0.0751  0.9224
  182EMI     C4 3443   1.994   0.802   6.567  0.3219 -0.1052 -0.3368
  182EMI     C5 3444   1.936   0.902   6.497  0.3920  0.1718  0.5705
  182EMI     H2 3445   2.008   0.698   6.264  2.0596  1.3286  1.1560
  182EMI     H4 3446   2.008   0.789   6.679  0.5085  0.4847  1.3523
  182EMI     H5 3447   1.896   0.992   6.546  1.9403  0.4391  1.0084
  182EMI    C1' 3448   2.120   0.583   6.512 -0.4452 -0.8257  0.3342
  182EMI    H1' 3449   2.056   0.503   6.557 -1.2118 -4.5212 -2.1153
  182EMI    H1' 3450   2.152   0.536   6.418 -0.2472 -1.0381  4.0833
  182EMI    H1' 3451   2.207   0.605   6.573 -1.4903 -3.5139  0.3792
  182EMI    C1" 3452   1.871   0.962   6.265 -0.2240 -0.3633  0.0824
  182EMI    H1" 3453   1.926   0.976   6.175 -0.5207 -2.5015  1.0652
  182EMI    H1" 3454   1.855   1.061   6.300  1.3193  0.3425 -1.3765
  182EMI    C2" 3455   1.736   0.902   6.228  0.5354 -0.6388 -0.3952
  182EMI    H2" 3456   1.715   0.927   6.122 -0.1540  2.4769  1.9169
  182EMI    H2" 3457   1.759   0.798   6.242 -0.0874  2.2879  2.3171
  182EMI    H2" 3458   1.654   0.945   6.291 -0.4544 -2.3327 -1.3339
  183EMI     N1 3459   2.021   5.381   1.954 -0.7325  0.4090 -0.4132
  183EMI     C2 3460   1.952   5.480   2.015  0.1590  0.0442 -0.3463
  183EMI     N3 3461   2.018   5.524   2.126  0.5096  0.0528 -0.3330
  183EMI     C4 3462   2.137   5.449   2.127  0.2796 -0.2633  0.6654
  183EMI     C5 3463   2.133   5.363   2.028  0.5801 -0.1287  0.2673
  183EMI     H2 3464   1.848   5.499   1.983 -1.5504 -2.0307  1.8138
  183EMI     H4 3465   2.224   5.474   2.185  2.9140  0.5915  1.1041
  183EMI     H5 3466   2.210   5.300   2.001 -1.9443  2.5400  0.7253
  183EMI    C1' 3467   1.974   5.593   2.248 -0.3085  0.3599 -0.0008
  183EMI    H1' 3468   2.061   5.601   2.318  1.5556  0.9069 -2.9290
  183EMI    H1' 3469   1.946   5.689   2.214 -1.8825 -1.9941 -1.8585
  183EMI    H1' 3470   1.894   5.535   2.305  1.0956 -2.9990 -2.3847
  183EMI    C1" 3471   2.001   5.306   1.830 -0.0915 -0.0276 -0.4056
  183EMI    H1" 3472   2.011   5.202   1.849 -0.7547  1.9552 -1.1480
  183EMI    H1" 3473   2.078   5.340   1.768 -0.7337  0.0270 -1.7319
  183EMI    C2" 3474   1.869   5.328   1.761 -0.3043 -0.5703  0.1716
  183EMI    H2" 3475   1.788   5.346   1.830  2.0540  1.8705  0.1839
  183EMI    H2" 3476   1.885   5.418   1.705  3.3064 -0.3897 -2.9075
  183EMI    H2" 3477   1.840   5.247   1.694 -2.4399 -0.0109  4.6865
  184EMI     N1 3478   3.457   0.328   4.348 -0.1499 -0.1505 -0.6921
  184EMI     C2 3479   3.551   0.324   4.248  0.7133 -0.0328  0.2458
  184EMI     N3 3480   3.579   0.199   4.210  0.0972 -0.5479 -0.1871
  184EMI     C4 3481   3.494   0.125   4.289 -0.1694  0.1527  0.3944
  184EMI     C5 3482   3.417   0.204   4.361  0.4956 -0.0153  0.9352
  184EMI     H2 3483   3.580   0.410   4.181  1.8642  0.2076  0.0174
  184EMI     H4 3484   3.473   0.019   4.290  0.1438 -0.5083  1.3625
  184EMI     H5 3485   3.342   0.176   4.434  1.3677  0.5517  0.1793
  184EMI    C1' 3486   3.657   0.138   4.097  0.1870 -0.3147 -0.0606
  184EMI    H1' 3487   3.618   0.039   4.068  2.4165 -0.4793  1.6730
  184EMI    H1' 3488   3.654   0.209   4.009 -0.8766 -0.9644 -2.3141
  184EMI    H1' 3489   3.764   0.140   4.124  1.7775 -2.0217 -2.2991
  184EMI    C1" 3490   3.386   0.444   4.394 -0.5087 -0.1505 -0.0481
  184EMI    H1" 3491   3.455   0.534   4.394  1.5494  0.4028 -0.2646
  184EMI    H1" 3492   3.344   0.442   4.493  1.4625 -0.2461 -2.8535
  184EMI    C2" 3493   3.284   0.468   4.282  0.7171 -0.3318 -0.1867
  184EMI    H2" 3494   3.197   0.404   4.286 -0.3959  1.7418 -2.1308
  184EMI    H2" 3495   3.239   0.569   4.292 -1.1117 -1.0227 -0.6189
  184EMI    H2" 3496   3.326   0.457   4.181 -0.2831  1.7197 -1.2142
  185EMI     N1 3497   3.536   4.999   2.403 -0.0530  0.2151  0.6202
  185EMI     C2 3498   3.578   5.130   2.423 -1.0783  0.4473  0.0576
  185EMI     N3 3499   3.531   5.176   2.543  0.2413 -0.4063 -0.1442
  185EMI     C4 3500   3.455   5.072   2.598  0.4307 -0.7291  0.2317
  185EMI     C5 3501   3.458   4.968   2.511 -0.0618 -0.2648  0.1599
  185EMI     H2 3502   3.637   5.187   2.360  0.0592 -2.1479 -1.6946
  185EMI     H4 3503   3.401   5.085   2.689  2.2749  2.0996  1.6267
  185EMI     H5 3504   3.409   4.879   2.523 -0.1911  1.7920 -0.6914
  185EMI    C1' 3505   3.568   5.291   2.621  0.0697  0.3967 -0.5218
  185EMI    H1' 3506   3.508   5.383   2.600 -3.5273  1.6746 -0.6379
  185EMI    H1' 3507   3.547   5.275   2.729  1.9859  0.9755 -2.7975
  185EMI    H1' 3508   3.675   5.310   2.630  1.5377 -1.9253 -2.9940
  185EMI    C1" 3509   3.567   4.899   2.294 -0.3606 -0.1006  0.4924
  185EMI    H1" 3510   3.511   4.804   2.305 -0.1364  2.1122 -1.3386
  185EMI    H1" 3511   3.677   4.882   2.287 -0.2865  3.2312  2.4807
  185EMI    C2" 3512   3.518   4.956   2.159  0.2732 -0.1704 -0.8478
  185EMI    H2" 3513   3.558   4.894   2.083  0.9788 -2.5625  1.7491
  185EMI    H2" 3514   3.409   4.950   2.149 -4.5263 -0.0129 -1.3154
  185EMI    H2" 3515   3.552   5.055   2.144 -0.5249  0.5087 -1.0918
  186EMI     N1 3516   3.571   1.189   2.106  0.0633  0.4426  0.1210
  186EMI     C2 3517   3.497   1.109   2.184  0.1545 -0.2777  0.1205
  186EMI     N3 3518   3.568   1.003   2.219  0.6371  0.1303 -0.0092
  186EMI     C4 3519   3.683   1.004   2.141 -0.0704 -0.1519 -0.4258
  186EMI     C5 3520   3.687   1.123   2.080  0.3574 -0.0422  0.2991
  186EMI     H2 3521   3.403   1.140   2.225 -0.2807  0.8669  0.0816
  186EMI     H4 3522   3.763   0.940   2.132  1.9212  0.2645 -1.1211
  186EMI     H5 3523   3.761   1.147   2.000 -0.4134 -2.5978 -0.9065
  186EMI    C1' 3524   3.528   0.890   2.311  0.0865  0.7691  0.5476
  186EMI    H1' 3525   3.566   0.791   2.283 -0.7253 -1.1416  0.7921
  186EMI    H1' 3526   3.571   0.915   2.407  2.3496  0.5418  2.4196
  186EMI    H1' 3527   3.420   0.886   2.338  0.9572 -1.0778 -1.3389
  186EMI    C1" 3528   3.538   1.312   2.035 -0.1320 -0.1425 -0.7655
  186EMI    H1" 3529   3.473   1.293   1.950  2.7619  1.6122 -2.3307
  186EMI    H1" 3530   3.628   1.343   1.988 -0.1623  1.2436  0.8663
  186EMI    C2" 3531   3.491   1.427   2.120  0.9740  0.1657  0.7120
  186EMI    H2" 3532   3.462   1.496   2.045 -1.5896 -0.7833 -0.6518
  186EMI    H2" 3533   3.408   1.397   2.188  1.0294  0.6698  2.9559
  186EMI    H2" 3534   3.571   1.463   2.178 -0.8087 -0.4846  1.8174
  187EMI     N1 3535   4.852   1.505   0.298  0.1583  0.1893 -0.1701
  187EMI     C2 3536   4.939   1.488   0.202 -0.0586 -0.6144  0.0658
  187EMI     N3 3537   4.878   1.462   0.089 -0.2421  0.3111 -0.0963
  187EMI     C4 3538   4.741   1.467   0.112 -0.3559  0.3417  0.1986
  187EMI     C5 3539   4.725   1.482   0.248  0.1961 -0.0628 -0.2243
  187EMI     H2 3540   5.045   1.490   0.206 -0.1353 -3.4663  0.3123
  187EMI     H4 3541   4.666   1.444   0.041  1.5983  0.6777  0.3786
  187EMI     H5 3542   4.632   1.484   0.299 -0.0206 -0.0131 -0.1902
  187EMI    C1' 3543   4.931   1.435  -0.046 -0.1201  0.7202  0.0637
  187EMI    H1' 3544   4.910   1.514  -0.118  2.7488 -2.9582  1.1694
  187EMI    H1' 3545   5.040   1.413  -0.034  2.3867  1.5177  0.0682
  187EMI    H1' 3546   4.885   1.347  -0.083  2.0393  1.3549 -1.4433
  187EMI    C1" 3547   4.877   1.540   0.441  0.1789  0.5274  0.4367
  187EMI    H1" 3548   4.798   1.579   0.509  0.5946  2.3683  1.9340
  187EMI    H1" 3549   4.946   1.625   0.441  0.6391  0.7502  0.2670
  187EMI    C2" 3550   4.934   1.421   0.516 -0.9826  0.2458  0.2785
  187EMI    H2" 3551   4.976   1.454   0.614  0.6773  1.3050  0.3113
  187EMI    H2" 3552   4.855   1.352   0.537 -2.8163 -1.5568 -1.1073
  187EMI    H2" 3553   5.015   1.370   0.461 -1.4721 -1.5807  1.5754
  188EMI     N1 3554   5.671   2.472   3.638 -0.3010 -0.4050 -0.8354
  188EMI     C2 3555   5.590   2.572   3.608  0.3235  0.0655  0.4630
  188EMI     N3 3556   5.565   2.646   3.721 -0.2369 -0.5977  0.2260
  188EMI     C4 3557   5.624   2.580   3.824 -0.9320 -0.5975 -0.1306
  188EMI     C5 3558   5.695   2.474   3.775  0.0653  0.6533 -0.1263
  188EMI     H2 3559   5.553   2.595   3.507  2.0569  1.2840  0.3580
  188EMI     H4 3560   5.636   2.605   3.924 -0.3072  0.2032 -0.1057
  188EMI     H5 3561   5.755   2.405   3.833  0.8811  2.2418  0.9393
  188EMI    C1' 3562   5.475   2.762   3.745 -0.1642 -0.1620  0.1930
  188EMI    H1' 3563   5.548   2.841   3.784  3.3119 -0.6704 -0.6619
  188EMI    H1' 3564   5.430   2.784   3.649 -1.5921  0.1981  0.2379
  188EMI    H1' 3565   5.395   2.736   3.817 -1.4537  0.4648  3.8762
  188EMI    C1" 3566   5.731   2.370   3.554  0.0081  0.7060  0.0198
  188EMI    H1" 3567   5.778   2.290   3.613  0.7240  0.3988 -0.6002
  188EMI    H1" 3568   5.814   2.420   3.496  1.2672 -0.5968  0.4451
  188EMI    C2" 3569   5.633   2.319   3.451  0.6661  0.2789 -0.0681
  188EMI    H2" 3570   5.588   2.400   3.396  3.4892 -2.7028  2.2478
  188EMI    H2" 3571   5.687   2.264   3.381  1.2998  0.6927 -0.7905
  188EMI    H2" 3572   5.556   2.263   3.499 -0.3989  2.0257 -0.3481
  189EMI     N1 3573   5.646   3.858   1.951  0.2058  0.1979  0.1117
  189EMI     C2 3574   5.746   3.909   2.030  0.1139 -0.5978  0.1486
  189EMI     N3 3575   5.802   4.019   1.976 -0.7438  0.3421  0.0161
  189EMI     C4 3576   5.748   4.029   1.852  0.2716 -0.2569  0.1816
  189EMI     C5 3577   5.659   3.933   1.831  0.3248  0.1063 -0.3695
  189EMI     H2 3578   5.765   3.889   2.127  0.1848  2.4416  0.0457
  189EMI     H4 3579   5.783   4.105   1.780  0.8580  2.6802 -0.8631
  189EMI     H5 3580   5.608   3.924   1.735  1.1413 -0.3227 -1.4646
  189EMI    C1' 3581   5.894   4.117   2.028  0.2184  0.0356  0.0435
  189EMI    H1' 3582   5.861   4.214   2.009  1.3388  1.7146  0.9145
  189EMI    H1' 3583   5.894   4.105   2.130  2.2274 -1.1809  1.5752
  189EMI    H1' 3584   5.998   4.101   2.003 -0.4055 -0.9178 -0.3940
  189EMI    C1" 3585   5.582   3.725   1.952 -0.3003  0.0979 -0.1331
  189EMI    H1" 3586   5.490   3.732   1.897  0.2340 -0.5639  3.2404
  189EMI    H1" 3587   5.543   3.699   2.055  1.4796 -0.7994  0.0850
  189EMI    C2" 3588   5.697   3.634   1.906 -0.2673  0.1640  0.1995
  189EMI    H2" 3589   5.776   3.639   1.982  2.2214 -0.2194  2.1291
  189EMI    H2" 3590   5.662   3.535   1.887  1.3139 -0.9805  2.0430
  189EMI    H2" 3591   5.728   3.673   1.813  0.9894 -0.6903 -0.4747
  190EMI     N1 3592   3.453   4.742   0.152  0.1084 -0.2938 -0.4174
  190EMI     C2 3593   3.455   4.848   0.071  0.1766  0.3156  0.6348
  190EMI     N3 3594   3.391   4.817  -0.040  0.0188  0.2312 -0.6243
  190EMI     C4 3595   3.358   4.683  -0.026 -0.4713  0.1803 -0.3743
  190EMI     C5 3596   3.396   4.636   0.092  0.2898  0.1979  0.3398
  190EMI     H2 3597   3.506   4.936   0.092  1.3088 -0.2141  1.6307
  190EMI     H4 3598   3.310   4.641  -0.114  2.2795  1.6394 -0.1834
  190EMI     H5 3599   3.392   4.540   0.138  0.3437  0.7712  0.7317
  190EMI    C1' 3600   3.341   4.905  -0.142  0.0530  0.4257 -0.1861
  190EMI    H1' 3601   3.300   4.991  -0.094  1.1445  1.7513  1.3002
  190EMI    H1' 3602   3.425   4.936  -0.204 -1.4102  0.4829 -1.7715
  190EMI    H1' 3603   3.273   4.855  -0.205  1.2862 -0.6126  1.7314
  190EMI    C1" 3604   3.518   4.732   0.282 -0.4777 -0.0117 -1.2041
  190EMI    H1" 3605   3.629   4.701   0.274  2.2368 -1.2017  0.9632
  190EMI    H1" 3606   3.473   4.645   0.329 -1.2099  2.3387 -3.0438
  190EMI    C2" 3607   3.498   4.855   0.371  0.5106 -0.1291 -0.4227
  190EMI    H2" 3608   3.397   4.893   0.365 -1.6773  0.7409  0.1907
  190EMI    H2" 3609   3.515   4.825   0.473  3.7448 -1.3828  0.7095
  190EMI    H2" 3610   3.560   4.936   0.340 -2.3930  2.1248 -0.3148
  191EMI     N1 3611   4.065   2.407   4.936  0.1873 -0.4858 -0.4043
  191EMI     C2 3612   3.995   2.340   4.849 -0.0549  0.4685 -0.1110
  191EMI     N3 3613   4.068   2.237   4.797 -0.2682 -0.5630  0.3915
  191EMI     C4 3614   4.189   2.238   4.862  0.8996  0.6204 -0.4392
  191EMI     C5 3615   4.186   2.339   4.948  0.3786 -0.1128  0.1234
  191EMI     H2 3616   3.895   2.371   4.820 -0.4591  1.0481 -0.3896
  191EMI     H4 3617   4.269   2.168   4.854  0.8916 -0.1342 -1.5311
  191EMI     H5 3618   4.272   2.366   5.012  2.2424 -0.6479 -1.3608
  191EMI    C1' 3619   4.038   2.142   4.695 -0.5889  0.0191  0.5031
  191EMI    H1' 3620   3.999   2.186   4.605 -2.5553  1.9331  2.8618
  191EMI    H1' 3621   4.127   2.083   4.668 -2.3583 -0.0511 -0.8156
  191EMI    H1' 3622   3.956   2.077   4.722  4.3645 -1.4497  0.9981
  191EMI    C1" 3623   4.039   2.533   5.013 -0.3493 -0.1405  0.4597
  191EMI    H1" 3624   4.132   2.574   5.049  1.9166  0.4603 -0.1575
  191EMI    H1" 3625   3.969   2.501   5.089  0.8214  0.6768 -1.1706
  191EMI    C2" 3626   3.971   2.651   4.931 -0.4753  1.1774 -0.6769
  191EMI    H2" 3627   3.936   2.728   5.002  2.1203 -0.7727  0.0561
  191EMI    H2" 3628   4.044   2.693   4.863 -1.3498 -0.2620 -1.6737
  191EMI    H2" 3629   3.884   2.618   4.873 -0.0618 -0.7031  0.3269
  192EMI     N1 3630   5.933   3.455   2.093 -0.3729 -0.8287  0.0712
  192EMI     C2 3631   5.886   3.500   2.209 -0.2288  0.2107 -0.1044
  192EMI     N3 3632   5.771   3.433   2.227 -0.1119 -0.1789 -0.3921
  192EMI     C4 3633   5.746   3.353   2.124  0.6645 -0.4187  0.4477
  192EMI     C5 3634   5.848   3.361   2.041  0.1778 -0.0770 -0.1931
  192EMI     H2 3635   5.930   3.582   2.264 -0.5322  0.0072  0.1368
  192EMI     H4 3636   5.656   3.289   2.104 -3.0184 -3.4642  3.9553
  192EMI     H5 3637   5.851   3.314   1.941  0.3959  0.8273 -0.0325
  192EMI    C1' 3638   5.668   3.444   2.333 -0.6502 -0.0807  0.1167
  192EMI    H1' 3639   5.671   3.358   2.406  1.1227 -0.1399 -0.9024
  192EMI    H1' 3640   5.686   3.533   2.394 -0.7909 -1.0148 -2.0260
  192EMI    H1' 3641   5.572   3.467   2.293  1.3750  0.2642 -3.1949
  192EMI    C1" 3642   6.045   3.510   2.021  0.1946  0.4650  0.2158
  192EMI    H1" 3643   6.077   3.606   2.068 -0.7705 -1.2212 -0.3550
  192EMI    H1" 3644   6.026   3.522   1.916  0.5067  1.5531  0.0783
  192EMI    C2" 3645   6.167   3.425   2.024  0.3544 -0.4893 -0.7400
  192EMI    H2" 3646   6.256   3.484   2.008  0.1786  0.4705  0.1686
  192EMI    H2" 3647   6.174   3.385   2.126  0.2737  0.6906 -1.8008
  192EMI    H2" 3648   6.155   3.345   1.957  1.4054  1.7117  2.6342
  193EMI     N1 3649   3.999   1.344   6.505 -0.1645 -0.6587  0.1892
  193EMI     C2 3650   4.033   1.466   6.546 -0.2709  0.3986 -0.1599
  193EMI     N3 3651   4.142   1.463   6.630  0.8559  0.0959 -0.5618
  193EMI     C4 3652   4.168   1.330   6.647 -0.3599  0.0218 -0.3072
  193EMI     C5 3653   4.082   1.259   6.570 -0.1704 -0.1639 -0.4269
  193EMI     H2 3654   3.982   1.557   6.509  1.6118  0.6331 -2.7272
  193EMI     H4 3655   4.245   1.284   6.711 -1.5908  0.7543 -3.0384
  193EMI     H5 3656   4.076   1.147   6.556  0.3951 -2.8490 -1.9523
  193EMI    C1' 3657   4.208   1.571   6.712  0.4975 -0.5310  0.5730
  193EMI    H1' 3658   4.309   1.538   6.728  3.2902 -0.2878  1.9127
  193EMI    H1' 3659   4.194   1.669   6.672 -3.0907 -0.6321 -2.0240
  193EMI    H1' 3660   4.150   1.572   6.803  3.6774  0.1858 -1.6479
  193EMI    C1" 3661   3.875   1.297   6.433  0.4234  0.3207  0.1609
  193EMI    H1" 3662   3.803   1.267   6.507  0.0696 -0.6494  0.4648
  193EMI    H1" 3663   3.904   1.205   6.377  2.7685  0.0312 -0.3595
  193EMI    C2" 3664   3.812   1.402   6.342 -0.3624  0.2323  0.0287
  193EMI    H2" 3665   3.796   1.488   6.402 -1.7672  0.9518 -1.3995
  193EMI    H2" 3666   3.878   1.421   6.263  1.2317  1.0919  1.1606
  193EMI    H2" 3667   3.713   1.359   6.317  2.3281  1.3779  2.3879
  194EMI     N1 3668   1.092   2.570   3.485 -0.5216  0.4769  0.1513
  194EMI     C2 3669   1.044   2.683   3.431  0.1596  0.4281  0.5844
  194EMI     N3 3670   1.014   2.763   3.533  0.4039  0.3243  0.1936
  194EMI     C4 3671   1.043   2.699   3.652  0.2694  0.8873  0.3343
  194EMI     C5 3672   1.091   2.577   3.624  0.0509 -0.7281  0.3513
  194EMI     H2 3673   1.032   2.705   3.332  1.5734 -1.7568  2.3064
  194EMI     H4 3674   1.030   2.729   3.751  0.1646 -0.6967  1.5747
  194EMI     H5 3675   1.107   2.500   3.700 -0.7013  1.1617  1.1087
  194EMI    C1' 3676   0.963   2.906   3.525  0.9174  0.8245 -0.0429
  194EMI    H1' 3677   1.028   2.981   3.564 -1.7100  0.5052  0.3811
  194EMI    H1' 3678   0.931   2.934   3.420 -1.5059 -2.8117 -0.8084
  194EMI    H1' 3679   0.877   2.915   3.582  0.8289  2.4549 -1.9111
  194EMI    C1" 3680   1.096   2.441   3.418  0.3206  0.0431  0.2425
  194EMI    H1" 3681   1.039   2.445   3.325 -0.2454 -2.0195 -1.5104
  194EMI    H1" 3682   1.052   2.370   3.482  1.5673  0.3671  3.8080
  194EMI    C2" 3683   1.238   2.414   3.378  0.2172  0.0563  0.2998
  194EMI    H2" 3684   1.292   2.405   3.469  0.2867 -0.9238 -0.9158
  194EMI    H2" 3685   1.232   2.323   3.314 -0.3131  0.6701 -0.6951
  194EMI    H2" 3686   1.273   2.496   3.314  1.2803 -1.1263 -1.9353
  195EMI     N1 3687   0.957   0.028   3.859  0.2205 -0.5911 -0.5578
  195EMI     C2 3688   1.027   0.062   3.972  0.5709 -0.5013  0.1876
  195EMI     N3 3689   1.128  -0.026   3.995 -0.0987  0.2536 -0.0701
  195EMI     C4 3690   1.101  -0.126   3.902  0.4484 -0.0461  0.1541
  195EMI     C5 3691   0.993  -0.096   3.823  0.7317 -0.4779  0.1048
  195EMI     H2 3692   1.022   0.157   4.004  1.2341 -1.8930 -1.7724
  195EMI     H4 3693   1.165  -0.209   3.890  1.6868  2.8982 -1.6477
  195EMI     H5 3694   0.952  -0.152   3.742  0.8075 -3.5395  0.8452
  195EMI    C1' 3695   1.230  -0.035   4.101 -0.0792  0.3832 -0.4469
  195EMI    H1' 3696   1.246   0.067   4.121  0.9078  0.7948 -2.7797
  195EMI    H1' 3697   1.178  -0.091   4.181  1.0937  1.1634 -1.4718
  195EMI    H1' 3698   1.317  -0.085   4.066 -1.6136 -0.7679  2.1158
  195EMI    C1" 3699   0.839   0.100   3.810 -0.5207  0.1014  0.2370
  195EMI    H1" 3700   0.835   0.195   3.857  0.4730  0.2773  1.9958
  195EMI    H1" 3701   0.749   0.040   3.840  0.2545 -2.1981  0.4443
  195EMI    C2" 3702   0.848   0.121   3.660  0.0055 -0.3569 -0.4713
  195EMI    H2" 3703   0.773   0.201   3.637  0.2151  0.5395 -4.0466
  195EMI    H2" 3704   0.943   0.149   3.606 -0.9586  0.1622  0.6155
  195EMI    H2" 3705   0.806   0.026   3.616 -0.7368 -2.1971 -1.0050
  196EMI     N1 3706   3.734   1.031   2.622  0.3249  0.3877  0.1134
  196EMI     C2 3707   3.739   0.897   2.647 -0.0262  0.3777  0.0675
  196EMI     N3 3708   3.851   0.847   2.601 -0.6259 -0.3251 -0.7597
  196EMI     C4 3709   3.927   0.950   2.545 -0.0805 -0.1432 -0.2879
  196EMI     C5 3710   3.853   1.063   2.564 -0.0904  0.0545  0.5397
  196EMI     H2 3711   3.664   0.848   2.710  0.4264 -0.6844 -2.9194
  196EMI     H4 3712   4.028   0.960   2.514  0.4503  0.7589 -1.6136
  196EMI     H5 3713   3.892   1.159   2.534 -0.9836 -0.6903 -3.2810
  196EMI    C1' 3714   3.906   0.712   2.610  0.3315 -0.8314  0.8547
  196EMI    H1' 3715   4.007   0.710   2.658  2.4853  0.1339 -0.5551
  196EMI    H1' 3716   3.837   0.647   2.662  1.7622 -1.7457 -2.8235
  196EMI    H1' 3717   3.918   0.675   2.502 -2.0765 -1.9073 -1.3088
  196EMI    C1" 3718   3.637   1.136   2.672 -0.7842  0.4672  0.3355
  196EMI    H1" 3719   3.624   1.191   2.581  0.5227 -1.2698  1.6036
  196EMI    H1" 3720   3.679   1.201   2.754 -3.3999 -1.4731  2.5421
  196EMI    C2" 3721   3.506   1.071   2.714  0.2191  0.5912  0.1857
  196EMI    H2" 3722   3.463   1.017   2.623 -2.8967 -1.5124 -1.9083
  196EMI    H2" 3723   3.506   1.010   2.802 -2.1460 -0.8625 -0.9606
  196EMI    H2" 3724   3.440   1.146   2.735  1.0625  2.0600 -1.0109
  197EMI     N1 3725   3.040   4.566   4.698  0.0351 -0.2331 -0.1714
  197EMI     C2 3726   2.946   4.652   4.645 -1.1515  0.0439 -0.2148
  197EMI     N3 3727   2.920   4.614   4.518 -0.0259 -0.3597 -0.2075
  197EMI     C4 3728   3.003   4.505   4.491  0.3351  0.5528 -0.6229
  197EMI     C5 3729   3.079   4.477   4.602  0.3471 -0.3089  0.3433
  197EMI     H2 3730   2.912   4.736   4.694  2.7528 -4.3108  0.4455
  197EMI     H4 3731   3.002   4.457   4.388  0.5715 -3.3160  0.2811
  197EMI     H5 3732   3.152   4.400   4.628 -0.5947  0.1714 -3.2112
  197EMI    C1' 3733   2.838   4.671   4.419  1.1600  0.2239 -0.1590
  197EMI    H1' 3734   2.895   4.746   4.367 -0.7738  0.0528 -0.3653
  197EMI    H1' 3735   2.800   4.591   4.352 -1.3722 -0.6657 -0.0754
  197EMI    H1' 3736   2.749   4.723   4.463  1.2783 -0.7593  0.4189
  197EMI    C1" 3737   3.106   4.565   4.835 -0.4677  0.6382  0.2250
  197EMI    H1" 3738   3.043   4.617   4.903  0.3095 -0.1814 -2.7484
  197EMI    H1" 3739   3.203   4.624   4.834  1.8866  1.9195  0.2951
  197EMI    C2" 3740   3.145   4.435   4.904  0.1969 -0.0707  0.3860
  197EMI    H2" 3741   3.062   4.368   4.906 -0.4340  1.3887 -0.8740
  197EMI    H2" 3742   3.224   4.387   4.847 -0.4307 -0.0037 -0.8096
  197EMI    H2" 3743   3.176   4.466   5.001 -0.6083  0.4490 -1.9832
  198EMI     N1 3744   1.397   0.928   0.146  0.7394  0.0399 -0.0837
  198EMI     C2 3745   1.488   0.969   0.062 -0.4968 -0.2105  0.8751
  198EMI     N3 3746   1.578   0.872   0.036 -0.1056  0.2443 -0.7184
  198EMI     C4 3747   1.542   0.766   0.113  0.4763 -0.0719  0.5638
  198EMI     C5 3748   1.434   0.803   0.184 -0.3188  0.3823  0.6928
  198EMI     H2 3749   1.497   1.068   0.019  0.3403  1.7806 -1.1426
  198EMI     H4 3750   1.586   0.663   0.118 -3.0545  0.5319 -0.3338
  198EMI     H5 3751   1.386   0.746   0.263 -0.7511 -1.1588  2.2115
  198EMI    C1' 3752   1.683   0.871  -0.065 -0.2899  0.2559  0.6130
  198EMI    H1' 3753   1.675   0.948  -0.130 -1.1717 -1.3935  0.9741
  198EMI    H1' 3754   1.784   0.890  -0.024  1.3717 -1.0267 -0.7145
  198EMI    H1' 3755   1.672   0.773  -0.116 -2.2485 -1.1849 -1.5644
  198EMI    C1" 3756   1.279   0.990   0.209 -0.4524 -0.4363  0.0101
  198EMI    H1" 3757   1.262   0.948   0.304 -1.7660  1.0330 -0.2002
  198EMI    H1" 3758   1.199   0.973   0.140  0.3966  0.7403 -0.5275
  198EMI    C2" 3759   1.299   1.137   0.220 -0.5162  0.2385 -0.1593
  198EMI    H2" 3760   1.380   1.166   0.285 -1.3251 -0.7730  2.3356
  198EMI    H2" 3761   1.327   1.189   0.123  0.0786 -3.6006 -2.2068
  198EMI    H2" 3762   1.215   1.184   0.266  5.2326 -0.1654  1.5210
  199EMI     N1 3763   2.249   0.247   5.644  0.1970  0.7226 -0.3464
  199EMI     C2 3764   2.360   0.168   5.628  0.3249  0.2896  0.6505
  199EMI     N3 3765   2.342   0.048   5.688  0.0955  0.0696  0.1569
  199EMI     C4 3766   2.232   0.059   5.768  0.0323 -0.0097  0.0639
  199EMI     C5 3767   2.172   0.181   5.739 -0.1514  0.1105  0.0056
  199EMI     H2 3768   2.446   0.184   5.562 -0.6462  0.5513  3.1834
  199EMI     H4 3769   2.188  -0.025   5.824  2.1711 -2.2051 -1.4750
  199EMI     H5 3770   2.071   0.206   5.769 -2.6125 -0.3189 -3.0523
  199EMI    C1' 3771   2.439  -0.063   5.691  0.0558 -0.1369 -0.0916
  199EMI    H1' 3772   2.501  -0.054   5.777  1.4803 -3.6312  0.8626
  199EMI    H1' 3773   2.394  -0.159   5.685  0.1618 -2.5269 -2.6111
  199EMI    H1' 3774   2.510  -0.068   5.604  0.1896 -0.4468  1.1148
  199EMI    C1" 3775   2.220   0.382   5.592  0.1838  0.2039 -0.1113
  199EMI    H1" 3776   2.111   0.410   5.585 -3.1582  1.6242 -0.1063
  199EMI    H1" 3777   2.254   0.375   5.485  3.1117 -1.2223 -1.0910
  199EMI    C2" 3778   2.294   0.481   5.676  0.6589  0.4262  0.0140
  199EMI    H2" 3779   2.396   0.444   5.683  0.7404 -1.6473 -0.3168
  199EMI    H2" 3780   2.282   0.583   5.649  2.0145 -1.6319  2.0158
  199EMI    H2" 3781   2.258   0.480   5.780 -0.6097 -2.1098  0.8594
  200EMI     N1 3782   0.481   4.289   4.760  0.0046 -0.2085 -0.2689
  200EMI     C2 3783   0.473   4.377   4.663 -0.0730 -0.1519 -0.3617
  200EMI     N3 3784   0.581   4.456   4.663 -0.2378  0.0763  0.4204
  200EMI     C4 3785   0.663   4.416   4.755 -0.1644  0.1528  0.0387
  200EMI     C5 3786   0.598   4.322   4.822  0.0731 -0.1572 -0.1365
  200EMI     H2 3787   0.388   4.390   4.601 -1.6753 -1.6070 -2.2882
  200EMI     H4 3788   0.763   4.456   4.768 -2.2708 -3.3897  0.8474
  200EMI     H5 3789   0.637   4.281   4.915  0.5906 -1.8627  1.2854
  200EMI    C1' 3790   0.608   4.575   4.580 -0.2603  0.0258 -0.1758
  200EMI    H1' 3791   0.609   4.665   4.640  1.3291 -0.4350  1.4558
  200EMI    H1' 3792   0.706   4.566   4.520 -2.0626  1.8126 -1.9699
  200EMI    H1' 3793   0.525   4.582   4.509 -2.4132 -0.9006  1.1006
  200EMI    C1" 3794   0.396   4.180   4.804 -0.0357  0.6183 -0.2186
  200EMI    H1" 3795   0.427   4.144   4.902  0.7976 -1.1759 -0.2931
  200EMI    H1" 3796   0.399   4.091   4.749  2.0575 -0.0244  3.0113
  200EMI    C2" 3797   0.245   4.213   4.807  0.0934  0.2791 -0.0490
  200EMI    H2" 3798   0.207   4.233   4.705  0.0523  0.1300  0.7311
  200EMI    H2" 3799   0.190   4.119   4.843 -2.2675  3.1378  3.9939
  200EMI    H2" 3800   0.222   4.296   4.875 -2.3747  0.1316  2.0406
  201EMI     N1 3801   5.047   5.420   6.211 -0.2268  0.2352  0.3850
  201EMI     C2 3802   4.983   5.319   6.271  0.1125  0.8011 -0.2766
  201EMI     N3 3803   4.951   5.354   6.397  0.0850  0.2557 -0.3450
  201EMI     C4 3804   4.992   5.485   6.416 -0.0184  0.7071  0.7032
  201EMI     C5 3805   5.055   5.519   6.298 -0.1592 -0.2484  0.0777
  201EMI     H2 3806   4.951   5.226   6.226  0.8289 -1.1183  0.9928
  201EMI     H4 3807   4.979   5.544   6.505  1.9864  0.8910  1.4653
  201EMI     H5 3808   5.098   5.612   6.281 -0.6771  0.5949 -1.4307
  201EMI    C1' 3809   4.884   5.276   6.494  0.1389  0.3070 -0.0296
  201EMI    H1' 3810   4.774   5.282   6.486 -0.8705  2.0626 -0.0872
  201EMI    H1' 3811   4.932   5.174   6.482 -0.4505 -4.8986 -0.6789
  201EMI    H1' 3812   4.912   5.323   6.589 -0.6573  1.2798  1.9259
  201EMI    C1" 3813   5.101   5.417   6.079  0.3653 -0.2997 -0.2058
  201EMI    H1" 3814   5.039   5.471   6.003  0.4179  3.3805  1.7109
  201EMI    H1" 3815   5.103   5.309   6.053  0.4199 -1.4845 -1.8263
  201EMI    C2" 3816   5.244   5.478   6.068 -0.1395 -0.0491  0.2127
  201EMI    H2" 3817   5.219   5.586   6.076 -3.0899  3.0537 -1.0470
  201EMI    H2" 3818   5.309   5.433   6.142  0.7876 -1.1594  1.3234
  201EMI    H2" 3819   5.290   5.469   5.968 -0.9599 -0.1985  1.0877
  202EMI     N1 3820   4.118   0.038   1.214 -0.0590  0.0681  0.2250
  202EMI     C2 3821   4.219   0.115   1.263 -0.2272 -0.5369  0.6763
  202EMI     N3 3822   4.335   0.081   1.201  0.1832  0.2316  0.1684
  202EMI     C4 3823   4.296  -0.010   1.105  0.3548  0.0302  0.4584
  202EMI     C5 3824   4.170  -0.038   1.119 -0.4494  0.1187 -0.0378
  202EMI     H2 3825   4.224   0.176   1.354  0.3103  1.4175 -0.5795
  202EMI     H4 3826   4.358  -0.060   1.028  1.9529 -0.3015 -0.1222
  202EMI     H5 3827   4.120  -0.110   1.052  1.5767 -2.1659  1.0874
  202EMI    C1' 3828   4.469   0.122   1.222 -0.4228  0.4564 -0.0629
  202EMI    H1' 3829   4.527   0.050   1.160 -2.0204  0.9187 -1.4490
  202EMI    H1' 3830   4.488   0.226   1.196  1.1207  0.4502  2.4541
  202EMI    H1' 3831   4.498   0.091   1.323  0.7376 -1.2492  3.1261
  202EMI    C1" 3832   3.976   0.034   1.255  0.7360 -0.1040 -0.3591
  202EMI    H1" 3833   3.929   0.133   1.258 -0.4613  0.2723  0.0385
  202EMI    H1" 3834   3.969  -0.007   1.358  2.2319 -1.5870  0.1928
  202EMI    C2" 3835   3.874  -0.041   1.171  0.2861 -0.0496 -0.2393
  202EMI    H2" 3836   3.895  -0.146   1.173  0.8267  3.3975  0.4792
  202EMI    H2" 3837   3.780  -0.028   1.220  0.8078 -1.3607 -0.9625
  202EMI    H2" 3838   3.867   0.003   1.068  2.2865 -2.0060 -1.7066
  203EMI     N1 3839   4.243   5.800   2.260  0.1328  0.5232  0.6778
  203EMI     C2 3840   4.199   5.768   2.136 -0.1013 -0.5428 -0.0720
  203EMI     N3 3841   4.077   5.713   2.142  0.1933  0.0043  0.4205
  203EMI     C4 3842   4.042   5.699   2.278  0.7920 -0.2403  0.1166
  203EMI     C5 3843   4.146   5.751   2.350 -0.4086 -0.2627 -0.5838
  203EMI     H2 3844   4.248   5.780   2.041 -1.9702  3.1264  3.6413
  203EMI     H4 3845   3.955   5.656   2.325  1.4859  1.3964 -0.4699
  203EMI     H5 3846   4.149   5.772   2.458  1.4385  0.8344  4.5779
  203EMI    C1' 3847   3.996   5.659   2.035 -0.0315 -0.6108  0.0546
  203EMI    H1' 3848   4.001   5.717   1.940 -2.3926 -2.4534  1.9705
  203EMI    H1' 3849   4.029   5.558   2.010 -1.0902  1.2237  0.6063
  203EMI    H1' 3850   3.889   5.655   2.064 -2.6671  0.3429 -0.3080
  203EMI    C1" 3851   4.356   5.880   2.303 -0.7282 -0.1005  0.6445
  203EMI    H1" 3852   4.323   5.948   2.377  1.2602  1.3195  1.1163
  203EMI    H1" 3853   4.407   5.926   2.217  0.6398  0.5731  1.5566
  203EMI    C2" 3854   4.453   5.777   2.363 -0.4170 -0.2477  0.9900
  203EMI    H2" 3855   4.402   5.737   2.449  1.8659  2.0360 -1.4803
  203EMI    H2" 3856   4.481   5.696   2.301  1.7323 -1.5522  0.4995
  203EMI    H2" 3857   4.539   5.832   2.410 -0.1172  0.2825  2.8238
  204EMI     N1 3858   5.601   1.239   6.439 -0.4530 -0.1781  0.1906
  204EMI     C2 3859   5.678   1.314   6.526  0.8342 -0.1371 -0.0937
  204EMI     N3 3860   5.816   1.300   6.504  0.5066 -0.0114  0.7973
  204EMI     C4 3861   5.816   1.213   6.394  0.4150 -0.6872  0.0271
  204EMI     C5 3862   5.692   1.179   6.353 -0.0700 -0.3052 -0.3346
  204EMI     H2 3863   5.641   1.375   6.600 -1.4059 -1.0142  0.1389
  204EMI     H4 3864   5.904   1.172   6.354 -1.0257 -0.7937 -1.4799
  204EMI     H5 3865   5.661   1.114   6.268  0.6675 -2.2861 -0.3945
  204EMI    C1' 3866   5.935   1.358   6.570 -0.5676 -0.5932  0.3082
  204EMI    H1' 3867   5.916   1.460   6.610  1.3105 -2.7196 -0.0997
  204EMI    H1' 3868   5.951   1.295   6.661  0.6646  0.4193  1.1376
  204EMI    H1' 3869   6.013   1.348   6.503 -1.5597  0.9178 -0.7154
  204EMI    C1" 3870   5.454   1.243   6.419  0.1507  0.1273  0.2302
  204EMI    H1" 3871   5.413   1.295   6.505  2.4574 -1.4445  2.0105
  204EMI    H1" 3872   5.414   1.144   6.418 -0.1906  2.7081 -1.3432
  204EMI    C2" 3873   5.433   1.325   6.292  0.4246 -0.7438  0.2236
  204EMI    H2" 3874   5.325   1.327   6.271 -2.5450 -0.3454 -1.8786
  204EMI    H2" 3875   5.479   1.424   6.311  1.8667  0.8852  0.1613
  204EMI    H2" 3876   5.486   1.275   6.209  1.1221 -0.3019 -0.9075
  205EMI     N1 3877   2.509   6.046   3.607  0.1221 -0.1668 -0.6670
  205EMI     C2 3878   2.524   5.991   3.724 -0.1954 -0.1925 -0.4349
  205EMI     N3 3879   2.519   5.854   3.726 -0.2896  0.3307 -0.3680
  205EMI     C4 3880   2.503   5.821   3.600 -0.0467  0.1985  0.4375
  205EMI     C5 3881   2.506   5.932   3.523  0.0681 -0.3888  0.2188
  205EMI     H2 3882   2.512   6.046   3.812  1.9701 -1.2079 -0.4206
  205EMI     H4 3883   2.496   5.721   3.562  1.4944 -0.0008  0.0166
  205EMI     H5 3884   2.489   5.940   3.410  0.7553  1.1524 -1.8315
  205EMI    C1' 3885   2.512   5.759   3.836  0.0908  0.2932 -0.2279
  205EMI    H1' 3886   2.483   5.664   3.791 -2.4117 -2.8510 -1.0238
  205EMI    H1' 3887   2.612   5.752   3.881  2.1430  0.3460 -3.3745
  205EMI    H1' 3888   2.445   5.794   3.912  0.5489 -0.2899  1.2884
  205EMI    C1" 3889   2.527   6.192   3.563 -0.9664 -0.2054  0.1477
  205EMI    H1" 3890   2.483   6.199   3.462  0.2482 -2.4806 -0.8036
  205EMI    H1" 3891   2.627   6.219   3.559  0.3808 -0.4336 -1.0537
  205EMI    C2" 3892   2.455   6.288   3.663 -0.0352  0.6509 -0.5189
  205EMI    H2" 3893   2.359   6.245   3.689  2.3504 -1.9265 -0.9109
  205EMI    H2" 3894   2.513   6.304   3.759 -0.9042  0.3866  0.5699
  205EMI    H2" 3895   2.443   6.385   3.619  0.1898  0.8191 -1.4420
  206EMI     N1 3896   4.056   1.644   1.644  0.1845  0.5547  0.1844
  206EMI     C2 3897   4.124   1.532   1.686  0.3943  0.2934  0.2513
  206EMI     N3 3898   4.224   1.509   1.596  0.1641  0.1049  0.4862
  206EMI     C4 3899   4.229   1.613   1.504  0.6081 -0.0367  0.1673
  206EMI     C5 3900   4.129   1.699   1.539 -0.9813  0.0268 -0.3105
  206EMI     H2 3901   4.104   1.466   1.768 -1.2870  0.0769 -1.8069
  206EMI     H4 3902   4.304   1.626   1.433  0.2642 -2.4237  3.1881
  206EMI     H5 3903   4.119   1.796   1.487 -2.4058 -0.2870  2.3163
  206EMI    C1' 3904   4.333   1.403   1.579  0.5666 -0.5346 -0.5063
  206EMI    H1' 3905   4.293   1.297   1.607  2.0204 -1.8662  1.8263
  206EMI    H1' 3906   4.355   1.402   1.476  1.8748 -1.6853 -0.3074
  206EMI    H1' 3907   4.428   1.427   1.635  0.0708  0.0455  1.0101
  206EMI    C1" 3908   3.955   1.733   1.707 -0.5711  0.1262  0.1540
  206EMI    H1" 3909   3.978   1.836   1.720 -0.5921 -2.5313 -2.2630
  206EMI    H1" 3910   3.934   1.689   1.807  1.2810  2.0553  2.3656
  206EMI    C2" 3911   3.832   1.711   1.627  0.1085 -0.1699 -0.1917
  206EMI    H2" 3912   3.805   1.603   1.618 -1.9749  0.9343 -0.8199
  206EMI    H2" 3913   3.742   1.762   1.674  0.3765 -0.0077  0.5988
  206EMI    H2" 3914   3.842   1.743   1.522 -0.3808 -0.1877  2.7712
  207EMI     N1 3915   1.445   0.919   1.062  0.2608  0.2155  0.1205
  207EMI     C2 3916   1.377   0.925   1.179  0.3057 -0.2688  0.1237
  207EMI     N3 3917   1.453   0.875   1.278 -0.2318  0.1147  0.1314
  207EMI     C4 3918   1.569   0.826   1.218 -0.2022  0.0318 -0.5590
  207EMI     C5 3919   1.562   0.847   1.089 -0.7171  0.2491  0.2127
  207EMI     H2 3920   1.276   0.946   1.193 -3.5723 -2.1862 -3.7286
  207EMI     H4 3921   1.650   0.779   1.261 -2.1063 -0.3806 -1.2842
  207EMI     H5 3922   1.633   0.813   1.011 -0.5470  0.0867 -0.7217
  207EMI    C1' 3923   1.419   0.860   1.418 -0.0989 -0.5734  0.1116
  207EMI    H1' 3924   1.500   0.900   1.485 -3.8447  1.5150  0.6169
  207EMI    H1' 3925   1.331   0.915   1.440  0.3349  1.7725  0.6762
  207EMI    H1' 3926   1.411   0.751   1.452  1.0942  0.1435 -1.7885
  207EMI    C1" 3927   1.395   0.940   0.927  0.0936  0.5461  0.3388
  207EMI    H1" 3928   1.370   0.834   0.889  1.7682 -5.1078  0.5196
  207EMI    H1" 3929   1.464   0.980   0.852 -1.1155 -1.1116 -2.5621
  207EMI    C2" 3930   1.280   1.035   0.929  0.4941  0.1080 -0.5895
  207EMI    H2" 3931   1.196   0.989   0.986 -1.4133 -3.3102 -0.0153
  207EMI    H2" 3932   1.317   1.124   0.968 -1.6653  0.2868 -0.8630
  207EMI    H2" 3933   1.255   1.051   0.823 -1.6097  1.2541 -1.6773
  208EMI     N1 3934   2.773   5.169   4.365  0.2550 -0.0221  0.0139
  208EMI     C2 3935   2.742   5.100   4.257 -0.4479 -0.1977 -0.1474
  208EMI     N3 3936   2.802   5.161   4.151 -0.4453 -0.5428 -0.5457
  208EMI     C4 3937   2.853   5.281   4.188  0.1186 -0.0628 -0.0248
  208EMI     C5 3938   2.840   5.283   4.322 -0.9418 -0.7705  0.2637
  208EMI     H2 3939   2.671   5.031   4.253 -1.9624  0.1287 -1.1759
  208EMI     H4 3940   2.906   5.356   4.120  1.7204  3.3931 -0.3143
  208EMI     H5 3941   2.869   5.362   4.385 -1.0170 -0.2794  1.6096
  208EMI    C1' 3942   2.799   5.131   4.002 -0.2768 -0.0979 -0.1628
  208EMI    H1' 3943   2.841   5.220   3.952  1.1046 -1.9694 -1.4287
  208EMI    H1' 3944   2.869   5.051   3.982 -0.6087 -1.3137 -2.1136
  208EMI    H1' 3945   2.696   5.109   3.969  2.0571  0.1893  1.0148
  208EMI    C1" 3946   2.739   5.138   4.503  0.6321 -0.2991 -0.1333
  208EMI    H1" 3947   2.789   5.211   4.574  1.4883 -0.2248 -0.3421
  208EMI    H1" 3948   2.751   5.030   4.527 -1.5498 -1.9224 -2.0034
  208EMI    C2" 3949   2.588   5.150   4.519  0.2820  0.1265  0.1564
  208EMI    H2" 3950   2.546   5.246   4.494 -0.3304 -1.6960 -3.0497
  208EMI    H2" 3951   2.537   5.074   4.462 -0.7528 -0.5026  0.7708
  208EMI    H2" 3952   2.557   5.138   4.618 -0.7018  0.7055 -2.2886
  209EMI     N1 3953   4.632   1.066   1.181 -0.3964 -0.3366 -0.1904
  209EMI     C2 3954   4.502   1.116   1.193  0.7829  0.6330  0.4961
  209EMI     N3 3955   4.436   1.094   1.076 -0.6353  0.1130 -0.4170
  209EMI     C4 3956   4.523   1.040   0.988 -0.7278  0.2948 -0.0248
  209EMI     C5 3957   4.641   1.019   1.052 -0.2626 -0.3704 -0.1767
  209EMI     H2 3958   4.463   1.149   1.292 -2.2850  0.7117 -2.8508
  209EMI     H4 3959   4.510   1.026   0.880  1.2741  0.3086 -0.7384
  209EMI     H5 3960   4.730   0.980   1.005  1.0734 -0.7013  1.0121
  209EMI    C1' 3961   4.298   1.129   1.048  0.2162  0.6931 -0.2057
  209EMI    H1' 3962   4.278   1.239   1.065 -0.8615  0.2003  1.3772
  209EMI    H1' 3963   4.274   1.116   0.943  1.2310 -3.3235  0.9185
  209EMI    H1' 3964   4.230   1.063   1.105  1.8851 -1.8191  1.2734
  209EMI    C1" 3965   4.747   1.038   1.271 -0.2142 -0.5791  0.7203
  209EMI    H1" 3966   4.804   1.129   1.283  0.3621 -0.5857 -1.5192
  209EMI    H1" 3967   4.804   0.965   1.225 -1.6090  1.2425  0.0058
  209EMI    C2" 3968   4.708   0.995   1.414 -0.4791 -0.1566 -0.3853
  209EMI    H2" 3969   4.649   0.908   1.399 -0.4437 -1.8706  1.1563
  209EMI    H2" 3970   4.801   0.975   1.464 -0.5080  1.2070  1.1414
  209EMI    H2" 3971   4.649   1.073   1.454 -0.6457 -2.0741 -1.1013
  210EMI     N1 3972   5.352   5.147   0.317  0.4535  0.1486 -0.0106
  210EMI     C2 3973   5.332   5.047   0.405  0.2596  0.0189  0.2214
  210EMI     N3 3974   5.375   4.930   0.360  0.0345 -0.0509  0.1498
  210EMI     C4 3975   5.417   4.952   0.230  0.6641  0.0894  1.1816
  210EMI     C5 3976   5.409   5.081   0.204  0.0265  0.4557  0.8054
  210EMI     H2 3977   5.285   5.072   0.500 -0.6808 -0.1021 -2.4799
  210EMI     H4 3978   5.457   4.881   0.157 -0.3096 -0.0902 -0.6011
  210EMI     H5 3979   5.430   5.126   0.109 -1.3312  2.0764  2.1480
  210EMI    C1' 3980   5.375   4.791   0.419 -0.1246  0.1549  0.0631
  210EMI    H1' 3981   5.281   4.735   0.405  1.6314 -1.9491  3.2239
  210EMI    H1' 3982   5.460   4.742   0.371  0.4658  0.7448  2.8646
  210EMI    H1' 3983   5.414   4.791   0.523 -1.4626 -1.5586  1.8785
  210EMI    C1" 3984   5.327   5.295   0.325 -0.1767 -0.0533 -1.1345
  210EMI    H1" 3985   5.223   5.321   0.309 -0.7379 -1.0909 -0.0654
  210EMI    H1" 3986   5.383   5.347   0.248  1.0014 -2.6272  0.5250
  210EMI    C2" 3987   5.373   5.352   0.463  0.3534  0.0492 -0.3514
  210EMI    H2" 3988   5.394   5.459   0.451  0.2336  0.8480  0.6568
  210EMI    H2" 3989   5.288   5.348   0.525  2.1885 -1.2895 -0.0410
  210EMI    H2" 3990   5.463   5.302   0.508  0.9054 -0.9773  1.1213
  211EMI     N1 3991   3.529   5.728   6.073 -0.3642  0.1487  0.4195
  211EMI     C2 3992   3.664   5.727   6.071  0.2996  0.0784 -0.4802
  211EMI     N3 3993   3.719   5.792   6.175  0.1238 -0.2488 -0.6249
  211EMI     C4 3994   3.609   5.823   6.256 -0.6367 -0.2304 -0.0874
  211EMI     C5 3995   3.498   5.781   6.200 -0.2022 -0.2678  0.2595
  211EMI     H2 3996   3.713   5.662   5.996  2.7768 -0.4121 -2.1874
  211EMI     H4 3997   3.608   5.866   6.352 -1.3736  0.1229 -4.3647
  211EMI     H5 3998   3.402   5.784   6.244  0.7116 -0.1860  0.4697
  211EMI    C1' 3999   3.856   5.804   6.223 -0.5701 -0.1885 -0.2885
  211EMI    H1' 4000   3.911   5.714   6.195  0.7351  2.6336  0.6357
  211EMI    H1' 4001   3.910   5.890   6.181  0.4379  3.5026 -1.7600
  211EMI    H1' 4002   3.853   5.829   6.328 -2.2411  0.1854  1.8934
  211EMI    C1" 4003   3.437   5.666   5.978  0.4355  0.6678  1.2346
  211EMI    H1" 4004   3.416   5.720   5.884 -2.1227  1.1769 -1.2488
  211EMI    H1" 4005   3.330   5.656   6.008 -1.6025  1.6656  0.9532
  211EMI    C2" 4006   3.481   5.530   5.927  0.2148 -0.3467  0.4349
  211EMI    H2" 4007   3.477   5.461   6.006 -1.0759  0.0248  2.1601
  211EMI    H2" 4008   3.417   5.501   5.841 -0.2555  2.2282  2.3328
  211EMI    H2" 4009   3.577   5.537   5.890 -2.8077 -0.8711  0.8074
  212EMI     N1 4010   5.641   3.228   3.471 -0.1557 -0.3112  0.0880
  212EMI     C2 4011   5.668   3.180   3.347  0.1157 -0.0991 -0.5659
  212EMI     N3 4012   5.618   3.269   3.258 -0.0108  0.9311  0.1575
  212EMI     C4 4013   5.554   3.371   3.327 -0.0345 -0.3404 -0.1657
  212EMI     C5 4014   5.566   3.343   3.458 -1.4904 -0.2856  0.1404
  212EMI     H2 4015   5.717   3.084   3.326  1.8125  1.8683 -1.3613
  212EMI     H4 4016   5.503   3.457   3.289 -0.9242  0.0313  1.1096
  212EMI     H5 4017   5.512   3.400   3.533 -2.4918  0.9381  0.0882
  212EMI    C1' 4018   5.621   3.267   3.109  0.0068 -0.2734  0.0451
  212EMI    H1' 4019   5.572   3.177   3.067 -1.9070 -0.4375  4.5314
  212EMI    H1' 4020   5.606   3.368   3.073  1.9520 -0.9638 -0.5089
  212EMI    H1' 4021   5.728   3.262   3.094  0.3240  0.3308  0.3323
  212EMI    C1" 4022   5.694   3.187   3.606  0.1476 -0.0212 -0.8283
  212EMI    H1" 4023   5.706   3.270   3.670 -0.4868 -1.4847  0.2130
  212EMI    H1" 4024   5.786   3.130   3.595 -2.9054  1.0061 -2.4350
  212EMI    C2" 4025   5.592   3.111   3.688  0.2741 -0.2285  0.7351
  212EMI    H2" 4026   5.502   3.172   3.694  0.5293 -0.0050 -0.8981
  212EMI    H2" 4027   5.567   3.011   3.645  1.2382  0.0648  0.1770
  212EMI    H2" 4028   5.643   3.084   3.776 -2.2583 -1.8099 -1.4809
  213EMI     N1 4029   6.022   0.269   3.635  0.6338 -0.5698 -0.3196
  213EMI     C2 4030   6.041   0.342   3.746 -0.4692 -0.5646  0.1137
  213EMI     N3 4031   5.950   0.437   3.754  0.9170 -0.4623 -0.5557
  213EMI     C4 4032   5.867   0.424   3.645  0.9366 -0.2842 -0.0191
  213EMI     C5 4033   5.916   0.326   3.567 -0.2252  0.2800 -0.2684
  213EMI     H2 4034   6.098   0.318   3.839 -1.0782  0.4060 -0.5018
  213EMI     H4 4035   5.790   0.499   3.617 -0.5028  0.3364 -3.6351
  213EMI     H5 4036   5.881   0.301   3.469 -0.4398  0.2173 -1.0311
  213EMI    C1' 4037   5.923   0.529   3.864  0.3721 -0.3157  0.2078
  213EMI    H1' 4038   5.946   0.473   3.958 -2.5757 -0.8009  1.2655
  213EMI    H1' 4039   5.956   0.627   3.849 -1.1212  1.3311 -0.3203
  213EMI    H1' 4040   5.812   0.549   3.863 -0.9319  0.5048 -0.0672
  213EMI    C1" 4041   6.076   0.137   3.595  0.3945 -0.8175  0.3454
  213EMI    H1" 4042   6.038   0.120   3.494  0.7781 -0.8722 -0.5689
  213EMI    H1" 4043   6.040   0.062   3.665  0.6863  1.1979  1.0283
  213EMI    C2" 4044   6.226   0.131   3.602 -0.0573 -0.1423 -0.4305
  213EMI    H2" 4045   6.262   0.192   3.681  1.2871  0.8760 -1.4664
  213EMI    H2" 4046   6.264   0.033   3.615  0.3734  0.6259 -2.4883
  213EMI    H2" 4047   6.262   0.185   3.512 -1.3538 -0.4034 -3.7098
  214EMI     N1 4048   0.702   4.538   6.084  0.0072 -0.8812  0.0875
  214EMI     C2 4049   0.567   4.566   6.076 -0.0212  0.3588 -0.0820
  214EMI     N3 4050   0.503   4.463   6.025  0.0592  0.0083 -0.3797
  214EMI     C4 4051   0.594   4.361   6.011  0.2951 -0.4601  0.3490
  214EMI     C5 4052   0.716   4.411   6.043  0.2151  0.7263  0.8381
  214EMI     H2 4053   0.514   4.662   6.091 -1.0700  0.3777  3.6687
  214EMI     H4 4054   0.572   4.257   5.984  0.6018 -0.2191  0.2063
  214EMI     H5 4055   0.806   4.348   6.041  1.9952  0.6617 -0.1236
  214EMI    C1' 4056   0.359   4.449   6.001  0.6089 -0.9647  0.7299
  214EMI    H1' 4057   0.346   4.342   6.001  1.7864  1.9525 -0.3289
  214EMI    H1' 4058   0.297   4.504   6.075 -1.3083  2.1162 -4.6164
  214EMI    H1' 4059   0.335   4.497   5.907 -2.2493  1.3949  1.5827
  214EMI    C1" 4060   0.814   4.613   6.145 -0.2922  0.1803 -0.2994
  214EMI    H1" 4061   0.812   4.719   6.120  5.2975  1.4794 -0.4042
  214EMI    H1" 4062   0.908   4.580   6.099  3.5041 -0.9287  0.9577
  214EMI    C2" 4063   0.811   4.602   6.298 -0.2104  0.6502 -0.5339
  214EMI    H2" 4064   0.741   4.672   6.335 -0.6852  0.5969 -1.6994
  214EMI    H2" 4065   0.793   4.500   6.341 -0.5200  0.3607 -1.9898
  214EMI    H2" 4066   0.901   4.629   6.334 -1.1167  1.6442  1.2682
  215EMI     N1 4067   3.948   0.762   3.461  0.5827  0.5140 -0.7829
  215EMI     C2 4068   3.839   0.692   3.506 -0.3745 -0.4866 -0.8198
  215EMI     N3 4069   3.865   0.562   3.518  0.3375 -0.0544  0.7144
  215EMI     C4 4070   3.996   0.548   3.480 -0.1248  0.2661 -0.4631
  215EMI     C5 4071   4.050   0.667   3.450 -0.4827 -0.5786 -0.0866
  215EMI     H2 4072   3.749   0.738   3.543  0.9704 -1.4414  0.0257
  215EMI     H4 4073   4.051   0.457   3.476 -2.2890  0.6819  1.5537
  215EMI     H5 4074   4.152   0.692   3.411 -0.5150  0.1642  0.2353
  215EMI    C1' 4075   3.777   0.452   3.546 -0.5257 -0.3310  0.0031
  215EMI    H1' 4076   3.684   0.472   3.607 -3.2869 -1.4421  2.5718
  215EMI    H1' 4077   3.749   0.420   3.447  0.7981  1.2784 -3.0086
  215EMI    H1' 4078   3.846   0.381   3.599 -0.0318 -4.2006 -2.5482
  215EMI    C1" 4079   3.970   0.911   3.462 -0.3060  0.1504  0.3690
  215EMI    H1" 4080   4.021   0.942   3.546 -2.7109  0.4262 -0.3010
  215EMI    H1" 4081   3.873   0.954   3.468  2.8812 -0.1736 -1.8876
  215EMI    C2" 4082   4.047   0.948   3.329  0.0818  0.3279 -0.1450
  215EMI    H2" 4083   4.080   1.056   3.336  0.1140  0.7893 -1.4996
  215EMI    H2" 4084   4.142   0.891   3.320  0.9246 -2.6570  2.8977
  215EMI    H2" 4085   3.990   0.933   3.237 -0.4263  3.1634 -0.1866
  216EMI     N1 4086   1.276   5.711   0.171  0.1035  0.6511 -0.3721
  216EMI     C2 4087   1.368   5.784   0.116  0.7326  0.3083  0.0030
  216EMI     N3 4088   1.377   5.753  -0.016  0.1815  0.4431 -0.4433
  216EMI     C4 4089   1.305   5.635  -0.038  0.8563  0.1667 -0.2761
  216EMI     C5 4090   1.235   5.620   0.079  0.3721  0.8549  1.2774
  216EMI     H2 4091   1.425   5.851   0.177  0.2558  0.1188 -0.1409
  216EMI     H4 4092   1.297   5.572  -0.127  0.0543 -2.9478 -1.0888
  216EMI     H5 4093   1.167   5.534   0.096  0.5743 -0.0904 -1.8075
  216EMI    C1' 4094   1.490   5.797  -0.100 -0.1832 -0.1504  0.4765
  216EMI    H1' 4095   1.580   5.776  -0.048 -0.5549  1.6872 -1.2454
  216EMI    H1' 4096   1.494   5.740  -0.194 -0.6363 -0.3516  0.2768
  216EMI    H1' 4097   1.477   5.902  -0.135  1.5710 -1.0353 -0.1138
  216EMI    C1" 4098   1.220   5.707   0.309 -0.1720  0.0214  0.3451
  216EMI    H1" 4099   1.304   5.729   0.381  3.7437  0.6644 -0.5523
  216EMI    H1" 4100   1.189   5.605   0.335 -0.9130 -2.3442  1.4077
  216EMI    C2" 4101   1.105   5.811   0.309  0.4808 -0.0720 -0.8555
  216EMI    H2" 4102   1.019   5.786   0.253 -0.6677 -3.1158  0.2037
  216EMI    H2" 4103   1.069   5.828   0.414 -0.4168 -1.5204 -1.9151
  216EMI    H2" 4104   1.124   5.903   0.259  2.2080 -2.7329  0.0645
  217EMI     N1 4105   1.928   6.392   2.869  0.1347  0.5522  0.3038
  217EMI     C2 4106   1.797   6.385   2.854 -0.6646  0.4473 -0.2907
  217EMI     N3 4107   1.732   6.464   2.945 -0.0879  0.4201  0.0427
  217EMI     C4 4108   1.829   6.522   3.026 -0.1931  0.4789 -0.5386
  217EMI     C5 4109   1.951   6.477   2.973  0.5540  0.7731 -0.2329
  217EMI     H2 4110   1.757   6.331   2.776  0.8496  0.2090 -1.4169
  217EMI     H4 4111   1.809   6.587   3.113 -0.5150 -1.8555  1.0929
  217EMI     H5 4112   2.051   6.504   3.009  2.1151  2.6950 -0.6388
  217EMI    C1' 4113   1.588   6.497   2.956  0.4480 -0.2830 -0.0498
  217EMI    H1' 4114   1.547   6.430   3.032  0.6543  1.1913  2.8288
  217EMI    H1' 4115   1.581   6.598   2.993  0.7191 -1.0025  0.1604
  217EMI    H1' 4116   1.528   6.491   2.867  1.1538 -0.1572 -0.5519
  217EMI    C1" 4117   2.032   6.334   2.785  0.3548  0.3492  0.2778
  217EMI    H1" 4118   1.977   6.273   2.712 -1.4944  1.4015 -2.4706
  217EMI    H1" 4119   2.102   6.280   2.839  0.2020  2.0522 -0.8639
  217EMI    C2" 4120   2.100   6.446   2.700 -0.0454 -0.5586 -0.6849
  217EMI    H2" 4121   2.140   6.536   2.760  0.6243  1.8507 -1.1334
  217EMI    H2" 4122   2.192   6.396   2.663 -3.9322 -1.2836 -1.5597
  217EMI    H2" 4123   2.028   6.487   2.624 -0.0954 -0.3073 -3.0260
  218EMI     N1 4124   0.472   5.065   5.058 -0.3895 -0.0835  0.2359
  218EMI     C2 4125   0.479   5.131   5.177  0.0761  0.3521  0.4787
  218EMI     N3 4126   0.586   5.216   5.178 -0.1253  0.0283 -0.1857
  218EMI     C4 4127   0.655   5.184   5.068  0.0934 -0.2349 -0.2673
  218EMI     C5 4128   0.582   5.100   4.989 -0.5397  0.1744  0.2001
  218EMI     H2 4129   0.416   5.125   5.262  2.3415  2.2066 -0.2562
  218EMI     H4 4130   0.754   5.224   5.049 -3.7277 -1.8345  0.0895
  218EMI     H5 4131   0.616   5.058   4.895 -0.0441 -0.6736 -0.4362
  218EMI    C1' 4132   0.621   5.318   5.272 -0.3232 -0.8051 -0.1466
  218EMI    H1' 4133   0.659   5.406   5.215  1.2394 -1.4621 -4.1449
  218EMI    H1' 4134   0.526   5.351   5.326  0.0741  1.5257  2.6547
  218EMI    H1' 4135   0.697   5.285   5.346  1.5312 -1.9673  0.0710
  218EMI    C1" 4136   0.379   4.960   5.013  0.1645 -0.1577  0.2407
  218EMI    H1" 4137   0.410   4.862   5.040 -1.4857 -1.8454 -1.0492
  218EMI    H1" 4138   0.377   4.961   4.902  2.6202 -2.2644 -2.8885
  218EMI    C2" 4139   0.236   4.983   5.073 -0.4124 -0.4659 -0.3336
  218EMI    H2" 4140   0.246   4.971   5.181  1.0494  0.8025  2.7983
  218EMI    H2" 4141   0.191   5.075   5.042 -0.9587 -1.0191  0.5665
  218EMI    H2" 4142   0.173   4.907   5.025  2.0514  2.0310 -1.0693
  219EMI     N1 4143   0.369   3.007   1.466  0.4489 -0.1375  0.7529
  219EMI     C2 4144   0.358   2.986   1.597  0.4630  0.5202 -0.3743
  219EMI     N3 4145   0.285   2.875   1.624 -0.7728 -0.1823 -0.0172
  219EMI     C4 4146   0.250   2.820   1.502 -0.0906  0.2170 -0.1873
  219EMI     C5 4147   0.303   2.903   1.406 -0.1214 -0.1399  0.5346
  219EMI     H2 4148   0.398   3.054   1.680 -0.0479 -0.3476  0.5271
  219EMI     H4 4149   0.191   2.722   1.496 -3.2532 -0.6481  0.5515
  219EMI     H5 4150   0.305   2.875   1.300  2.2589 -1.3235 -1.6053
  219EMI    C1' 4151   0.248   2.819   1.755 -0.7266  0.8490 -0.3942
  219EMI    H1' 4152   0.174   2.743   1.756 -0.8522 -2.2680 -0.3463
  219EMI    H1' 4153   0.328   2.784   1.815  0.2647  0.3995 -0.7285
  219EMI    H1' 4154   0.203   2.895   1.815  1.4239 -1.3383 -2.5908
  219EMI    C1" 4155   0.447   3.110   1.401 -0.9688 -0.3268  0.0015
  219EMI    H1" 4156   0.502   3.164   1.479 -0.2370 -0.0395  1.3474
  219EMI    H1" 4157   0.377   3.171   1.343  0.4538  0.3475  1.0132
  219EMI    C2" 4158   0.551   3.045   1.310  0.1338 -0.5743  0.0912
  219EMI    H2" 4159   0.631   2.993   1.373 -1.8709  1.5673  0.7126
  219EMI    H2" 4160   0.510   2.978   1.239  1.9216  1.1918 -0.1471
  219EMI    H2" 4161   0.607   3.117   1.261  0.7456 -1.1426  0.6947
  220EMI     N1 4162   2.150   5.858   5.759 -0.1101 -0.5999 -0.1655
  220EMI     C2 4163   2.091   5.981   5.730  0.2199 -0.2878  0.3233
  220EMI     N3 4164   2.180   6.076   5.701 -0.1907 -0.0959 -0.1021
  220EMI     C4 4165   2.304   6.023   5.709 -0.2383  0.6125 -0.2220
  220EMI     C5 4166   2.284   5.893   5.743  0.0459 -1.1517 -0.7217
  220EMI     H2 4167   1.982   5.997   5.744  0.3389 -0.6852  0.6312
  220EMI     H4 4168   2.404   6.071   5.683 -1.3768  2.8113 -4.0092
  220EMI     H5 4169   2.367   5.825   5.750  1.1916  2.1435 -0.0232
  220EMI    C1' 4170   2.149   6.216   5.663 -0.5404  1.4126  0.5226
  220EMI    H1' 4171   2.191   6.242   5.567 -1.2330  2.6922  1.2291
  220EMI    H1' 4172   2.042   6.220   5.643  0.9495 -0.1744 -2.2121
  220EMI    H1' 4173   2.185   6.289   5.740  0.4502  2.7130 -1.7853
  220EMI    C1" 4174   2.107   5.731   5.814 -0.0539  0.0360  0.4787
  220EMI    H1" 4175   2.170   5.658   5.765  1.3047 -0.7398  1.5494
  220EMI    H1" 4176   2.007   5.719   5.779  1.9203 -0.8188  0.8480
  220EMI    C2" 4177   2.111   5.719   5.964  0.1173  0.1730  0.1735
  220EMI    H2" 4178   2.033   5.779   6.009 -1.6357 -1.8204 -1.2129
  220EMI    H2" 4179   2.072   5.616   5.997  1.2832 -2.0018  1.9322
  220EMI    H2" 4180   2.212   5.726   5.995 -0.0954  1.4011 -2.1181
  221EMI     N1 4181   4.357   2.683   1.989 -0.1808 -0.0302  0.1317
  221EMI     C2 4182   4.377   2.657   1.862  0.9089  0.4574 -0.0394
  221EMI     N3 4183   4.289   2.562   1.818  0.5001 -0.5085  0.2217
  221EMI     C4 4184   4.206   2.535   1.924 -0.0130  0.0138  0.2566
  221EMI     C5 4185   4.241   2.617   2.028  0.6772 -0.5424  0.2306
  221EMI     H2 4186   4.461   2.709   1.811  0.4698 -0.6991 -0.3967
  221EMI     H4 4187   4.125   2.465   1.916 -1.6619  1.0348  1.6788
  221EMI     H5 4188   4.210   2.633   2.129 -0.1024  1.6540  1.8290
  221EMI    C1' 4189   4.277   2.495   1.686  0.6275  0.3363  0.2967
  221EMI    H1' 4190   4.176   2.510   1.644  0.3608  0.8822  0.8771
  221EMI    H1' 4191   4.342   2.540   1.611  0.4425 -1.8557 -0.0716
  221EMI    H1' 4192   4.300   2.391   1.689  0.3387 -2.1603 -0.7551
  221EMI    C1" 4193   4.443   2.762   2.076  0.4177  0.0327  0.1712
  221EMI    H1" 4194   4.545   2.713   2.071 -0.3901 -0.6686  0.9214
  221EMI    H1" 4195   4.393   2.759   2.180 -1.0172 -2.0241  2.5393
  221EMI    C2" 4196   4.449   2.909   2.036 -0.0726  0.0041 -0.6516
  221EMI    H2" 4197   4.490   2.931   1.944 -0.3267 -0.2218  0.0602
  221EMI    H2" 4198   4.350   2.949   2.027  1.2899 -2.3170 -0.5025
  221EMI    H2" 4199   4.495   2.968   2.113  0.5274 -0.6719 -0.3231
  222EMI     N1 4200   5.764   5.433   0.762 -0.1211 -0.9545  0.0080
  222EMI     C2 4201   5.834   5.354   0.837 -0.5411  0.2889 -1.1421
  222EMI     N3 4202   5.807   5.225   0.816 -0.5678  0.0590 -0.3314
  222EMI     C4 4203   5.708   5.223   0.722 -0.0437  0.3163 -0.3953
  222EMI     C5 4204   5.679   5.352   0.689 -0.0600  0.2566 -0.1462
  222EMI     H2 4205   5.904   5.389   0.907 -1.8977 -0.5654  0.9134
  222EMI     H4 4206   5.671   5.128   0.686 -0.3338  1.9666  0.4600
  222EMI     H5 4207   5.612   5.386   0.611  1.0064 -2.4531  2.5285
  222EMI    C1' 4208   5.853   5.095   0.879 -0.6882 -0.0653  0.4402
  222EMI    H1' 4209   5.809   5.007   0.831 -3.4129  0.1988 -1.5770
  222EMI    H1' 4210   5.965   5.076   0.867  0.1435 -1.1989  1.1650
  222EMI    H1' 4211   5.829   5.080   0.989  1.5065  0.1253 -1.5077
  222EMI    C1" 4212   5.790   5.579   0.743  0.7083 -0.3176 -0.0010
  222EMI    H1" 4213   5.825   5.626   0.839  1.8678  0.3107  0.4959
  222EMI    H1" 4214   5.693   5.622   0.704  1.0706 -1.4976 -0.2426
  222EMI    C2" 4215   5.907   5.585   0.644 -0.1862  0.2462  0.7362
  222EMI    H2" 4216   5.929   5.686   0.597  0.6725 -0.2191  0.7487
  222EMI    H2" 4217   5.998   5.553   0.692 -2.0699 -1.7968 -1.0878
  222EMI    H2" 4218   5.891   5.511   0.566  3.2454  0.4892  2.0672
  223EMI     N1 4219   1.399   5.603   5.807 -0.1358 -0.1960 -0.5305
  223EMI     C2 4220   1.369   5.487   5.872  0.8014 -0.2336  0.1019
  223EMI     N3 4221   1.423   5.496   5.998 -0.0381 -0.0139 -0.2922
  223EMI     C4 4222   1.484   5.620   6.012 -0.0819  0.6410  1.3057
  223EMI     C5 4223   1.467   5.687   5.894 -0.6216 -0.1174  0.9028
  223EMI     H2 4224   1.309   5.406   5.841 -1.1618 -0.9665 -0.6806
  223EMI     H4 4225   1.514   5.661   6.113  0.1427  0.0339  0.7879
  223EMI     H5 4226   1.493   5.790   5.878 -0.7541  0.8893 -1.0415
  223EMI    C1' 4227   1.402   5.409   6.114 -0.1138 -0.0267 -0.0911
  223EMI    H1' 4228   1.318   5.452   6.174 -6.0176  0.3494  1.2219
  223EMI    H1' 4229   1.372   5.309   6.090  0.1506  0.3996 -2.9744
  223EMI    H1' 4230   1.496   5.420   6.169  3.3663  1.7741 -0.8706
  223EMI    C1" 4231   1.357   5.643   5.672 -0.2866  0.1686  0.5121
  223EMI    H1" 4232   1.390   5.559   5.614 -2.8949 -0.2794 -3.9331
  223EMI    H1" 4233   1.409   5.736   5.650  0.5884 -1.3394  0.6829
  223EMI    C2" 4234   1.201   5.657   5.657 -0.4520 -0.2207  0.1666
  223EMI    H2" 4235   1.161   5.731   5.736  1.6992 -1.8759 -1.6034
  223EMI    H2" 4236   1.173   5.687   5.558  1.7084  0.9315  0.6895
  223EMI    H2" 4237   1.160   5.558   5.669  0.8401  0.1255 -4.0281
  224EMI     N1 4238   1.235   0.618   1.171 -0.0028  0.4698 -0.4802
  224EMI     C2 4239   1.333   0.540   1.217  0.8081 -0.2694  0.1234
  224EMI     N3 4240   1.423   0.521   1.123 -0.6117  0.4031  0.0961
  224EMI     C4 4241   1.376   0.581   1.005  0.4362  0.3925 -0.8863
  224EMI     C5 4242   1.256   0.632   1.037 -0.8926  0.0727 -0.2335
  224EMI     H2 4243   1.322   0.487   1.309  2.2206 -1.3392  1.8671
  224EMI     H4 4244   1.430   0.599   0.917  1.2359 -0.5102  2.1833
  224EMI     H5 4245   1.198   0.685   0.971 -1.4023 -0.1662 -0.4128
  224EMI    C1' 4246   1.548   0.450   1.128 -0.3795 -0.2387  0.7161
  224EMI    H1' 4247   1.536   0.345   1.165 -2.8578 -1.1366  1.0926
  224EMI    H1' 4248   1.581   0.440   1.024 -1.3654  3.2640 -2.5478
  224EMI    H1' 4249   1.616   0.520   1.177  1.4230 -2.4826 -1.0950
  224EMI    C1" 4250   1.117   0.682   1.250 -0.3007  0.2965  0.5429
  224EMI    H1" 4251   1.040   0.699   1.178  1.2032  2.2914  0.3605
  224EMI    H1" 4252   1.148   0.779   1.288 -2.0110  0.5295  2.6838
  224EMI    C2" 4253   1.059   0.595   1.363  0.4450  0.7480  0.8728
  224EMI    H2" 4254   1.080   0.491   1.355  0.3900  0.4247  1.5829
  224EMI    H2" 4255   1.100   0.621   1.461  0.2299  0.0602 -0.3632
  224EMI    H2" 4256   0.954   0.614   1.363  2.0959  0.2272 -0.3827
  225EMI     N1 4257   5.526   2.766   6.182 -0.3743  0.0016 -0.1400
  225EMI     C2 4258   5.459   2.822   6.283 -0.0866 -0.2371  0.3087
  225EMI     N3 4259   5.329   2.830   6.246  0.4032 -0.5985 -0.4351
  225EMI     C4 4260   5.319   2.778   6.120 -0.6139  0.2468  0.6755
  225EMI     C5 4261   5.439   2.731   6.083  0.0908 -0.5653  0.0807
  225EMI     H2 4262   5.506   2.855   6.370  1.5991 -2.1144 -2.2414
  225EMI     H4 4263   5.221   2.777   6.068 -0.9573  0.4819  1.0532
  225EMI     H5 4264   5.466   2.687   5.985 -0.7661 -0.0484 -0.9621
  225EMI    C1' 4265   5.206   2.879   6.317 -0.2873 -0.6244 -0.5698
  225EMI    H1' 4266   5.186   2.815   6.404  0.5743  2.3255 -1.0342
  225EMI    H1' 4267   5.225   2.983   6.344  0.3626 -0.6227 -1.0072
  225EMI    H1' 4268   5.120   2.866   6.255  1.7135 -0.3488  0.4361
  225EMI    C1" 4269   5.674   2.719   6.180 -0.4479  1.5269 -0.1370
  225EMI    H1" 4270   5.670   2.613   6.141  1.1134  2.6865 -1.7387
  225EMI    H1" 4271   5.725   2.733   6.277  2.3190  0.1506 -2.6118
  225EMI    C2" 4272   5.754   2.796   6.077  0.5221 -0.3414  0.1139
  225EMI    H2" 4273   5.839   2.732   6.052 -0.5464 -1.1499 -2.4057
  225EMI    H2" 4274   5.699   2.800   5.975  0.8700  0.8827 -0.1625
  225EMI    H2" 4275   5.781   2.900   6.110  2.4786  1.3098  0.9003
  226EMI     N1 4276   3.108   6.070   5.016  0.0493  0.0593 -0.0598
  226EMI     C2 4277   3.013   6.052   5.111  0.1094 -0.7138 -0.3246
  226EMI     N3 4278   2.910   6.139   5.087 -0.4872  0.4903  0.1398
  226EMI     C4 4279   2.949   6.210   4.978 -0.2520 -0.8998 -0.3160
  226EMI     C5 4280   3.070   6.172   4.929  0.2399  0.0679 -1.1275
  226EMI     H2 4281   3.017   5.977   5.186 -1.5334 -0.0886  0.0877
  226EMI     H4 4282   2.880   6.287   4.934  0.4114  3.2487 -1.9091
  226EMI     H5 4283   3.117   6.207   4.836 -2.4473  2.4495 -2.8074
  226EMI    C1' 4284   2.792   6.178   5.170 -0.1941 -0.1167  0.0315
  226EMI    H1' 4285   2.705   6.210   5.105  1.4279  1.9379 -1.4160
  226EMI    H1' 4286   2.752   6.093   5.228  2.3594 -1.0385  1.4502
  226EMI    H1' 4287   2.818   6.254   5.234 -0.4615  3.7274 -1.7989
  226EMI    C1" 4288   3.242   6.016   5.001  0.5333  0.0408 -0.6025
  226EMI    H1" 4289   3.284   6.084   4.928 -0.4702 -1.4670  0.3467
  226EMI    H1" 4290   3.241   5.915   4.957  0.6003 -0.0355 -1.2929
  226EMI    C2" 4291   3.323   6.008   5.127 -0.2851  0.2850  0.1247
  226EMI    H2" 4292   3.287   5.936   5.196  0.7598  0.5514 -0.2468
  226EMI    H2" 4293   3.424   5.981   5.090 -0.3373  0.9711 -0.4506
  226EMI    H2" 4294   3.322   6.107   5.176 -1.8099 -1.7269  0.1702
  227EMI     N1 4295   6.394   3.798   1.921 -0.4468  0.2551  0.0034
  227EMI     C2 4296   6.503   3.836   1.854 -0.8010  0.5410  0.4163
  227EMI     N3 4297   6.498   3.793   1.727 -0.5103  0.4614 -0.1230
  227EMI     C4 4298   6.379   3.730   1.705  0.0726  0.9092  0.5296
  227EMI     C5 4299   6.311   3.743   1.824 -0.5118  0.5583 -0.3492
  227EMI     H2 4300   6.577   3.905   1.892  0.8081 -0.5041 -1.0743
  227EMI     H4 4301   6.350   3.689   1.602  1.2912  1.7706 -3.3172
  227EMI     H5 4302   6.207   3.715   1.846  1.6038 -2.0002 -0.1198
  227EMI    C1' 4303   6.607   3.785   1.624  0.0262  0.1402 -0.5929
  227EMI    H1' 4304   6.674   3.862   1.640 -2.5552 -1.7330 -1.7422
  227EMI    H1' 4305   6.668   3.692   1.628  0.6384  0.7884 -0.1718
  227EMI    H1' 4306   6.565   3.791   1.523 -1.2187  1.3677  0.2874
  227EMI    C1" 4307   6.344   3.830   2.060 -0.0357  0.1420 -0.0399
  227EMI    H1" 4308   6.281   3.760   2.108 -0.0386 -1.2632 -1.9576
  227EMI    H1" 4309   6.294   3.931   2.053  0.6916  1.3956  0.3374
  227EMI    C2" 4310   6.454   3.844   2.166  1.0828 -0.1437 -0.2187
  227EMI    H2" 4311   6.496   3.750   2.193  2.0201  0.2730 -0.0245
  227EMI    H2" 4312   6.525   3.915   2.123 -2.0048 -0.1556 -1.1909
  227EMI    H2" 4313   6.415   3.880   2.264  0.0784 -0.5197  1.1310
  228EMI     N1 4314   5.148   3.294   5.091 -0.0830  0.4363 -0.2657
  228EMI     C2 4315   5.057   3.204   5.138  0.1702  0.8896  0.2686
  228EMI     N3 4316   5.091   3.168   5.265 -0.2970 -0.4531  0.1587
  228EMI     C4 4317   5.209   3.240   5.292  0.0204 -0.4213  0.0676
  228EMI     C5 4318   5.241   3.315   5.188 -0.6954 -0.7195 -0.1937
  228EMI     H2 4319   4.972   3.162   5.086 -1.6273  3.4113  1.9508
  228EMI     H4 4320   5.263   3.243   5.385 -2.1442  1.2372 -1.3647
  228EMI     H5 4321   5.321   3.384   5.193  0.8479 -1.6340  1.3954
  228EMI    C1' 4322   5.033   3.080   5.374  0.4926 -0.2261 -0.3822
  228EMI    H1' 4323   5.069   2.981   5.345  0.7625 -2.5324 -0.7135
  228EMI    H1' 4324   5.055   3.121   5.466  0.8845  0.4815  0.4932
  228EMI    H1' 4325   4.921   3.072   5.351 -2.2804 -2.9345  1.5067
  228EMI    C1" 4326   5.159   3.369   4.959  1.3710  0.6395  0.2524
  228EMI    H1" 4327   5.140   3.299   4.877 -0.4515  0.0886 -1.5293
  228EMI    H1" 4328   5.259   3.420   4.945  0.0142  2.2546  0.4181
  228EMI    C2" 4329   5.040   3.468   4.969 -0.5792  0.6295 -0.5519
  228EMI    H2" 4330   4.949   3.409   4.985 -0.1834  1.4216 -0.8363
  228EMI    H2" 4331   5.054   3.533   5.058 -2.7203  1.5865  0.6429
  228EMI    H2" 4332   5.023   3.541   4.891  0.6190  1.3816 -0.2414
  229EMI     N1 4333   2.222   2.389   2.420  0.7979 -0.1814  0.3895
  229EMI     C2 4334   2.160   2.462   2.326  0.1471 -0.6560 -0.0650
  229EMI     N3 4335   2.099   2.570   2.378 -0.0491  0.3811 -0.2036
  229EMI     C4 4336   2.123   2.564   2.508 -1.0029 -0.3657 -0.2640
  229EMI     C5 4337   2.208   2.457   2.544 -0.2932 -0.3619  0.4520
  229EMI     H2 4338   2.153   2.443   2.222 -1.1392 -1.1415  2.5107
  229EMI     H4 4339   2.103   2.644   2.579 -1.5108  1.6754  3.1319
  229EMI     H5 4340   2.259   2.428   2.633  0.7829  1.3139 -1.9793
  229EMI    C1' 4341   2.007   2.665   2.322  0.1284  0.1209  0.2236
  229EMI    H1' 4342   1.922   2.616   2.271 -1.1129  1.1138 -0.1475
  229EMI    H1' 4343   1.975   2.739   2.397  0.6277 -0.0051  1.0542
  229EMI    H1' 4344   2.060   2.711   2.240 -0.9698  2.0415 -0.8418
  229EMI    C1" 4345   2.313   2.265   2.401 -0.4503 -0.1659 -0.3382
  229EMI    H1" 4346   2.316   2.213   2.491 -0.3540 -1.7372  0.1883
  229EMI    H1" 4347   2.419   2.292   2.379 -0.3742  0.8965 -2.0327
  229EMI    C2" 4348   2.259   2.168   2.299  0.0667  0.1064 -0.6038
  229EMI    H2" 4349   2.157   2.145   2.343 -2.3078 -0.6477 -1.6251
  229EMI    H2" 4350   2.260   2.212   2.194 -2.6037 -0.5937 -0.3781
  229EMI    H2" 4351   2.317   2.075   2.301  2.2650 -0.3716  0.2039
  230EMI     N1 4352   4.571   4.654   3.424 -0.2003  0.5224 -0.1616
  230EMI     C2 4353   4.671   4.576   3.379  0.0893  0.2079  0.5518
  230EMI     N3 4354   4.627   4.509   3.269  0.0901  0.3685 -0.3136
  230EMI     C4 4355   4.499   4.552   3.243  0.5650  0.2278 -0.0787
  230EMI     C5 4356   4.467   4.645   3.334  0.3947  0.5049  0.3791
  230EMI     H2 4357   4.763   4.558   3.424 -1.6475  0.2563 -0.6632
  230EMI     H4 4358   4.438   4.517   3.162  1.2483  0.9712 -0.1637
  230EMI     H5 4359   4.371   4.687   3.344  0.8032 -0.5135 -1.5752
  230EMI    C1' 4360   4.693   4.405   3.189 -0.5740  0.6106  0.1869
  230EMI    H1' 4361   4.632   4.363   3.107  0.5076 -0.9961 -1.8756
  230EMI    H1' 4362   4.793   4.454   3.163  2.1675  0.1676  2.2412
  230EMI    H1' 4363   4.710   4.317   3.251 -0.9388 -2.3620 -1.1352
  230EMI    C1" 4364   4.576   4.730   3.546  0.4207 -0.0448  0.6355
  230EMI    H1" 4365   4.541   4.831   3.533  0.1741 -0.0501  2.0515
  230EMI    H1" 4366   4.674   4.735   3.578 -1.9556 -0.8142  1.4255
  230EMI    C2" 4367   4.496   4.668   3.661 -0.1253  0.1342  0.2208
  230EMI    H2" 4368   4.517   4.555   3.669 -0.2231 -0.5395 -1.4827
  230EMI    H2" 4369   4.503   4.717   3.760 -2.1254  0.6976 -0.1386
  230EMI    H2" 4370   4.388   4.679   3.636  1.4256 -0.2661  2.3568
  231EMI     N1 4371   4.089   1.417   4.218 -0.5302 -0.0379 -0.2533
  231EMI     C2 4372   4.138   1.464   4.101 -1.0534  0.3440  0.2536
  231EMI     N3 4373   4.031   1.507   4.029 -0.0416  0.2880  0.4840
  231EMI     C4 4374   3.915   1.477   4.095 -0.1868  0.2949  0.3748
  231EMI     C5 4375   3.952   1.421   4.212  0.1265  0.0789  0.2629
  231EMI     H2 4376   4.240   1.482   4.069  3.6619  2.1098 -2.4814
  231EMI     H4 4377   3.817   1.489   4.049 -0.4042 -2.6510  0.3070
  231EMI     H5 4378   3.887   1.381   4.288 -0.3263  1.1613  2.6458
  231EMI    C1' 4379   4.025   1.577   3.903  0.3130 -1.1459  0.1331
  231EMI    H1' 4380   4.078   1.675   3.902 -0.5558  1.8930 -0.1391
  231EMI    H1' 4381   4.067   1.507   3.826 -0.9675  0.9560 -1.5286
  231EMI    H1' 4382   3.923   1.602   3.864  0.4936 -1.9064  0.7922
  231EMI    C1" 4383   4.167   1.370   4.338 -0.1497  0.6964  0.3430
  231EMI    H1" 4384   4.093   1.312   4.404 -2.6765  2.8898  0.0037
  231EMI    H1" 4385   4.211   1.453   4.397  1.4143 -0.6725  3.4457
  231EMI    C2" 4386   4.283   1.272   4.303  0.0911 -0.7892  0.9286
  231EMI    H2" 4387   4.338   1.242   4.397  0.5663 -2.5827  1.4401
  231EMI    H2" 4388   4.243   1.179   4.262 -0.7353  2.1855  1.6124
  231EMI    H2" 4389   4.368   1.318   4.245  1.0747 -0.9458  3.1211
  232EMI     N1 4390   1.542   4.298   6.320  0.2383  0.2562 -0.2453
  232EMI     C2 4391   1.584   4.171   6.329  0.1299  0.4741  0.8663
  232EMI     N3 4392   1.624   4.142   6.453  0.2867  0.2161  0.6860
  232EMI     C4 4393   1.605   4.255   6.527  0.4861 -0.2155 -0.0214
  232EMI     C5 4394   1.550   4.350   6.446 -0.9542 -0.3634 -0.2875
  232EMI     H2 4395   1.588   4.096   6.247 -0.5815 -1.5043  1.7469
  232EMI     H4 4396   1.621   4.280   6.633  1.0058 -1.1073 -1.6817
  232EMI     H5 4397   1.516   4.447   6.473  0.5722  0.8576 -2.4816
  232EMI    C1' 4398   1.691   4.017   6.503  0.4698  0.5418 -0.5951
  232EMI    H1' 4399   1.766   3.988   6.427  2.7577  0.9216  0.5706
  232EMI    H1' 4400   1.740   4.024   6.595 -1.0344 -3.0019  0.4776
  232EMI    H1' 4401   1.608   3.944   6.509 -0.6756  0.3571 -1.7215
  232EMI    C1" 4402   1.492   4.371   6.203  0.0220  0.4896 -0.2869
  232EMI    H1" 4403   1.471   4.468   6.239  0.5722  0.1828 -0.1683
  232EMI    H1" 4404   1.408   4.316   6.158 -2.6034 -0.5252  2.1898
  232EMI    C2" 4405   1.603   4.381   6.097 -0.5053  0.1520  0.0289
  232EMI    H2" 4406   1.692   4.421   6.138 -2.6124 -3.3740 -1.7145
  232EMI    H2" 4407   1.619   4.289   6.044  1.7358  3.2714  1.8870
  232EMI    H2" 4408   1.573   4.445   6.017 -1.7076  2.5256 -1.3103
  233EMI     N1 4409   3.294   2.050   5.778  0.3461 -0.4823  0.4963
  233EMI     C2 4410   3.193   1.979   5.834  0.2096  0.2056  0.2380
  233EMI     N3 4411   3.075   2.016   5.794 -0.1880 -0.4626 -0.9401
  233EMI     C4 4412   3.095   2.117   5.701  0.1029 -0.0626  0.0719
  233EMI     C5 4413   3.231   2.138   5.692 -0.4821  0.1994  0.5264
  233EMI     H2 4414   3.221   1.896   5.900 -0.6345 -0.6535  0.0018
  233EMI     H4 4415   3.018   2.179   5.657 -0.6417 -3.1383  1.0650
  233EMI     H5 4416   3.284   2.226   5.658 -1.6810 -0.6068 -1.7581
  233EMI    C1' 4417   2.940   1.986   5.848 -0.2896  0.1707 -0.0074
  233EMI    H1' 4418   2.946   1.929   5.935 -3.1558  2.7533 -3.1903
  233EMI    H1' 4419   2.880   2.076   5.857 -1.7995 -1.9596 -0.3525
  233EMI    H1' 4420   2.879   1.923   5.778  0.0546  1.1214 -1.9993
  233EMI    C1" 4421   3.445   2.056   5.805  0.4098 -0.6885 -0.1349
  233EMI    H1" 4422   3.475   1.975   5.878 -0.2973  1.7926  1.0584
  233EMI    H1" 4423   3.477   2.145   5.853 -1.4961  0.5168 -1.4094
  233EMI    C2" 4424   3.518   2.042   5.663  0.0521  0.4947  0.0614
  233EMI    H2" 4425   3.483   2.116   5.596 -0.0859 -0.2484  1.5991
  233EMI    H2" 4426   3.629   2.031   5.657  2.3378  1.5000  0.7636
  233EMI    H2" 4427   3.490   1.947   5.621 -2.0729  1.9432 -1.4041
  234EMI     N1 4428   1.927   0.255   4.966 -0.2479 -0.9005 -0.2385
  234EMI     C2 4429   1.969   0.309   5.079 -0.6806 -0.5132 -0.1298
  234EMI     N3 4430   2.079   0.249   5.125  0.3511 -0.0672 -0.8513
  234EMI     C4 4431   2.119   0.161   5.023  0.6403 -0.6143 -0.3712
  234EMI     C5 4432   2.024   0.170   4.927 -0.0639 -0.1270 -0.7468
  234EMI     H2 4433   1.918   0.395   5.123 -3.1628 -0.9640 -3.0646
  234EMI     H4 4434   2.206   0.098   5.026 -1.0831  0.8592 -3.9654
  234EMI     H5 4435   2.023   0.108   4.843  1.5432 -1.2470  0.6693
  234EMI    C1' 4436   2.171   0.268   5.245  0.1295 -0.5453  0.0252
  234EMI    H1' 4437   2.270   0.270   5.202 -2.4984  4.4241  1.6887
  234EMI    H1' 4438   2.143   0.370   5.285 -0.5255  0.1669 -1.6356
  234EMI    H1' 4439   2.157   0.183   5.314 -1.4624 -0.9156  0.7280
  234EMI    C1" 4440   1.807   0.294   4.893  0.2603 -0.2752 -0.0844
  234EMI    H1" 4441   1.820   0.401   4.856 -1.7224 -1.3476 -2.1344
  234EMI    H1" 4442   1.733   0.296   4.976  0.5750 -1.5786  3.0346
  234EMI    C2" 4443   1.760   0.193   4.781  0.2568 -0.1818 -0.1389
  234EMI    H2" 4444   1.832   0.180   4.702 -0.0808  1.9782  0.0936
  234EMI    H2" 4445   1.739   0.095   4.819 -0.1597  1.2232 -2.6103
  234EMI    H2" 4446   1.667   0.235   4.743 -1.9501  2.1526  0.3893
  235EMI     N1 4447   0.766   2.671   4.235 -0.1031 -0.0608  0.3545
  235EMI     C2 4448   0.728   2.550   4.275  0.5571  0.0932  0.0927
  235EMI     N3 4449   0.594   2.543   4.275  0.0502  0.3524 -0.0407
  235EMI     C4 4450   0.543   2.665   4.231 -0.8339  0.5148  0.0967
  235EMI     C5 4451   0.652   2.744   4.210  0.1635 -0.0570 -0.4708
  235EMI     H2 4452   0.790   2.461   4.300  1.6390 -0.3438 -1.6287
  235EMI     H4 4453   0.444   2.695   4.205  1.8327 -1.2452 -0.0782
  235EMI     H5 4454   0.648   2.843   4.175 -0.7428 -2.4897  0.8421
  235EMI    C1' 4455   0.508   2.441   4.325 -0.3207 -0.3990 -1.3397
  235EMI    H1' 4456   0.417   2.485   4.371  0.4054 -0.6454 -0.1135
  235EMI    H1' 4457   0.474   2.388   4.242  0.1544 -0.6691  0.0002
  235EMI    H1' 4458   0.564   2.374   4.391  1.2149 -2.1080 -1.2611
  235EMI    C1" 4459   0.901   2.726   4.203  0.7439  0.3822  0.0368
  235EMI    H1" 4460   0.974   2.701   4.285 -0.7554 -1.7454  1.8274
  235EMI    H1" 4461   0.884   2.836   4.187 -2.8063 -0.7120 -0.4793
  235EMI    C2" 4462   0.951   2.672   4.063 -0.6562 -0.0492 -0.2633
  235EMI    H2" 4463   0.869   2.622   4.003 -0.5000  1.3080 -0.3813
  235EMI    H2" 4464   0.991   2.762   4.022 -2.1600  2.4800  0.4218
  235EMI    H2" 4465   1.035   2.607   4.094 -0.1439  2.2696  0.9451
  236EMI     N1 4466   6.507   0.989   0.473 -0.7695 -1.0932  0.5867
  236EMI     C2 4467   6.532   0.947   0.351  0.2761 -0.0248 -1.2658
  236EMI     N3 4468   6.418   0.919   0.287  0.0182  0.4110  0.1746
  236EMI     C4 4469   6.318   0.941   0.381  0.7395  0.4467  0.1146
  236EMI     C5 4470   6.373   0.981   0.500  1.1703  0.2300  0.3578
  236EMI     H2 4471   6.632   0.952   0.301  2.9189 -1.9022  2.1217
  236EMI     H4 4472   6.207   0.932   0.364 -0.1207 -1.6140 -0.4345
  236EMI     H5 4473   6.315   1.011   0.593 -0.5241 -0.2750 -1.9721
  236EMI    C1' 4474   6.400   0.853   0.149 -0.5707  0.1788  0.4067
  236EMI    H1' 4475   6.387   0.742   0.172 -0.1967 -1.0492 -0.5412
  236EMI    H1' 4476   6.303   0.903   0.102  2.1006  1.0555 -1.7180
  236EMI    H1' 4477   6.488   0.864   0.085  0.2039  1.5903 -2.1192
  236EMI    C1" 4478   6.603   1.049   0.571  0.6908 -0.7669  0.4631
  236EMI    H1" 4479   6.587   0.989   0.665 -1.8653  1.7810  1.5661
  236EMI    H1" 4480   6.567   1.150   0.596  3.1080  0.4773 -1.5760
  236EMI    C2" 4481   6.747   1.039   0.535  0.2821 -0.1471 -0.1684
  236EMI    H2" 4482   6.808   1.088   0.615  1.1790 -1.6748 -0.9347
  236EMI    H2" 4483   6.786   0.943   0.511 -1.9356 -0.2392  2.4071
  236EMI    H2" 4484   6.769   1.101   0.451  3.1543 -1.5871  1.7644
  237EMI     N1 4485   0.700   3.552   6.691  0.0530 -0.2874  0.5876
  237EMI     C2 4486   0.693   3.648   6.592  0.2610  0.1695  0.2670
  237EMI     N3 4487   0.569   3.646   6.535 -0.3549  0.0666 -0.5632
  237EMI     C4 4488   0.493   3.547   6.594 -0.0966  0.5976 -0.9914
  237EMI     C5 4489   0.582   3.482   6.685  0.2855  0.2571  0.4000
  237EMI     H2 4490   0.774   3.707   6.545 -1.2464  1.1680 -2.9038
  237EMI     H4 4491   0.394   3.518   6.571 -0.1367 -0.4493  1.3248
  237EMI     H5 4492   0.570   3.386   6.734  0.7379  2.0377 -0.3356
  237EMI    C1' 4493   0.516   3.730   6.420  0.0641  0.3796 -0.4892
  237EMI    H1' 4494   0.485   3.827   6.462 -2.0920 -0.1503 -0.8775
  237EMI    H1' 4495   0.595   3.750   6.346  0.7210  1.2726  0.1007
  237EMI    H1' 4496   0.424   3.683   6.385  0.9160 -2.8184  3.3544
  237EMI    C1" 4497   0.821   3.506   6.765  0.5934  0.1655 -0.0258
  237EMI    H1" 4498   0.888   3.454   6.700 -5.7034  2.5027  1.3168
  237EMI    H1" 4499   0.791   3.437   6.849 -1.1025 -2.6438  1.7542
  237EMI    C2" 4500   0.908   3.627   6.814  0.3784 -0.1929 -0.1747
  237EMI    H2" 4501   1.000   3.595   6.859 -2.9650  0.6008 -2.4996
  237EMI    H2" 4502   0.925   3.703   6.741 -1.1154 -2.8839  1.1163
  237EMI    H2" 4503   0.845   3.676   6.889 -1.2392 -1.5323  1.8017
  238EMI     N1 4504   2.095   3.145   5.510 -0.1473  0.1238 -0.0220
  238EMI     C2 4505   2.167   3.188   5.402 -0.4084  0.1576 -0.3655
  238EMI     N3 4506   2.279   3.252   5.449 -0.2419 -0.6635  0.7316
  238EMI     C4 4507   2.272   3.256   5.584 -0.3075 -0.2890 -0.1070
  238EMI     C5 4508   2.158   3.189   5.619 -0.4667  0.7487  0.4920
  238EMI     H2 4509   2.149   3.162   5.302  0.3062  1.7277 -2.2253
  238EMI     H4 4510   2.347   3.310   5.649  1.4236 -1.0225 -0.3453
  238EMI     H5 4511   2.125   3.186   5.722 -2.6184  2.2691 -1.8992
  238EMI    C1' 4512   2.398   3.310   5.379 -0.3133 -0.2337  0.2409
  238EMI    H1' 4513   2.459   3.356   5.460 -0.6568 -1.7573  1.0282
  238EMI    H1' 4514   2.444   3.235   5.315 -1.9673  0.7410 -2.3768
  238EMI    H1' 4515   2.356   3.385   5.309 -0.2170 -0.4167  0.6285
  238EMI    C1" 4516   1.981   3.052   5.535  0.0385  0.1635 -0.4007
  238EMI    H1" 4517   1.895   3.103   5.510  0.5461  0.1682  0.2990
  238EMI    H1" 4518   1.975   3.036   5.643 -1.9972 -1.0558 -1.8257
  238EMI    C2" 4519   1.985   2.927   5.456  0.1343 -0.1212 -0.0422
  238EMI    H2" 4520   1.967   2.952   5.351  2.0899  0.7326  0.3369
  238EMI    H2" 4521   2.077   2.872   5.466 -1.0853 -1.6076  1.9812
  238EMI    H2" 4522   1.906   2.856   5.483 -0.0748  0.1357  0.6646
  239EMI     N1 4523   2.205   3.377   6.313  0.6023 -0.3082 -0.0550
  239EMI     C2 4524   2.204   3.480   6.224  0.2492 -0.3646  0.1340
  239EMI     N3 4525   2.259   3.594   6.266 -1.0772  0.5294 -0.2077
  239EMI     C4 4526   2.287   3.566   6.402  0.5031 -0.0625  0.0755
  239EMI     C5 4527   2.248   3.433   6.431  0.1519 -0.0979 -0.4987
  239EMI     H2 4528   2.152   3.474   6.127 -0.8688 -0.3004  0.0128
  239EMI     H4 4529   2.319   3.632   6.482  1.2129 -2.4635 -0.1533
  239EMI     H5 4530   2.246   3.389   6.534 -0.6703 -0.1084 -1.5181
  239EMI    C1' 4531   2.285   3.722   6.198 -0.2305  0.2171 -0.2043
  239EMI    H1' 4532   2.200   3.757   6.144 -0.8361 -0.4253 -0.1328
  239EMI    H1' 4533   2.323   3.790   6.274  3.6554  1.0640 -2.3459
  239EMI    H1' 4534   2.373   3.709   6.126 -1.0129  0.3116 -1.1604
  239EMI    C1" 4535   2.152   3.236   6.298 -0.0347 -0.0278 -0.2182
  239EMI    H1" 4536   2.190   3.177   6.383  0.0576 -1.5583 -1.1445
  239EMI    H1" 4537   2.194   3.198   6.204  1.8733  1.1203 -0.7917
  239EMI    C2" 4538   1.997   3.244   6.307 -0.6664  0.6502 -0.5789
  239EMI    H2" 4539   1.963   3.142   6.334  3.1080  0.2703  0.2311
  239EMI    H2" 4540   1.964   3.307   6.389 -1.0806 -2.6036 -0.4611
  239EMI    H2" 4541   1.957   3.282   6.218  0.7110  0.9053  1.2900
  240EMI     N1 4542   0.052   6.149   4.936  0.4272  0.1354 -0.7722
  240EMI     C2 4543   0.184   6.150   4.963 -0.6753  0.1770  0.0411
  240EMI     N3 4544   0.252   6.074   4.869 -0.5371 -0.2342 -0.7828
  240EMI     C4 4545   0.156   6.005   4.796  1.1449 -0.0774 -0.3464
  240EMI     C5 4546   0.034   6.048   4.838  0.2012  0.0331 -0.0659
  240EMI     H2 4547   0.244   6.218   5.035  3.5721  0.3299  0.9566
  240EMI     H4 4548   0.177   5.921   4.725 -0.0468 -0.5832  2.1929
  240EMI     H5 4549  -0.058   6.006   4.798 -1.6927  4.2531  1.5193
  240EMI    C1' 4550   0.391   6.046   4.857  0.4760  0.4640  0.4243
  240EMI    H1' 4551   0.446   6.132   4.892 -0.1121  1.4316 -1.9138
  240EMI    H1' 4552   0.418   5.949   4.903  0.5252  0.6328  1.7469
  240EMI    H1' 4553   0.418   6.038   4.749  4.0958 -1.2771 -2.3964
  240EMI    C1" 4554  -0.053   6.240   4.984  0.2746 -0.0184  0.1510
  240EMI    H1" 4555  -0.016   6.264   5.085 -0.0369  0.7554  0.9526
  240EMI    H1" 4556  -0.149   6.188   4.981  0.8618 -0.9502 -0.1889
  240EMI    C2" 4557  -0.069   6.366   4.899  0.1927  0.6027 -0.2072
  240EMI    H2" 4558   0.022   6.415   4.877 -2.7278  0.4186  1.5789
  240EMI    H2" 4559  -0.114   6.334   4.804  0.7429 -0.6570 -0.5836
  240EMI    H2" 4560  -0.140   6.430   4.947  0.4500  2.7582  0.4296
  241EMI     N1 4561   3.911   0.053   3.627  0.2491  0.5374  0.8314
  241EMI     C2 4562   3.872   0.069   3.755  0.5629 -0.0463 -0.9563
  241EMI     N3 4563   3.915  -0.034   3.833  0.3668  0.1511  0.1136
  241EMI     C4 4564   3.992  -0.112   3.744 -0.3461  0.2517 -0.3066
  241EMI     C5 4565   3.994  -0.061   3.619  0.1498 -0.4724 -0.2067
  241EMI     H2 4566   3.810   0.150   3.783  1.1190  1.0891  2.7199
  241EMI     H4 4567   4.052  -0.196   3.776 -1.0871 -1.1915  0.4052
  241EMI     H5 4568   4.045  -0.096   3.530  0.7367 -0.0079  0.1911
  241EMI    C1' 4569   3.908  -0.063   3.973  0.8933  0.6375  0.4605
  241EMI    H1' 4570   3.930   0.023   4.027 -0.4510  1.3592  1.4881
  241EMI    H1' 4571   3.806  -0.102   3.990 -0.6107  0.4586  1.9302
  241EMI    H1' 4572   3.973  -0.148   4.004 -0.2698 -0.2563  2.2424
  241EMI    C1" 4573   3.876   0.131   3.504 -0.0280  0.1683  0.0836
  241EMI    H1" 4574   3.838   0.219   3.544  3.1074  0.4017 -0.7192
  241EMI    H1" 4575   3.803   0.077   3.445  1.3896 -0.7126  2.0026
  241EMI    C2" 4576   4.000   0.163   3.416 -0.5120 -0.7895 -0.8255
  241EMI    H2" 4577   4.061   0.235   3.473 -1.2388  3.1609 -0.9736
  241EMI    H2" 4578   4.043   0.067   3.397  1.0761  0.9840 -1.2956
  241EMI    H2" 4579   3.985   0.210   3.315 -1.7858  0.3533 -1.8640
  242EMI     N1 4580   4.302   3.847   2.843 -0.2133 -0.3025 -0.0789
  242EMI     C2 4581   4.301   3.980   2.809 -0.4296  0.0083  0.0699
  242EMI     N3 4582   4.178   4.015   2.773 -0.3908  0.0841 -0.1261
  242EMI     C4 4583   4.102   3.900   2.773 -0.3029  0.3037 -0.3465
  242EMI     C5 4584   4.174   3.803   2.833 -0.2639  0.0392 -0.8796
  242EMI     H2 4585   4.393   4.052   2.813  0.5373 -0.8384  1.2919
  242EMI     H4 4586   3.998   3.888   2.735 -0.7705 -1.3624 -0.4496
  242EMI     H5 4587   4.128   3.701   2.853 -0.1141 -0.2021  0.9038
  242EMI    C1' 4588   4.126   4.143   2.727 -0.1317 -0.7402  0.1459
  242EMI    H1' 4589   4.204   4.214   2.717  1.2153 -0.5311 -4.1878
  242EMI    H1' 4590   4.087   4.141   2.626 -0.3644  1.0372 -0.8341
  242EMI    H1' 4591   4.051   4.179   2.795  0.7217 -1.1516  4.3419
  242EMI    C1" 4592   4.416   3.757   2.882 -0.1468 -0.1961 -0.2968
  242EMI    H1" 4593   4.372   3.653   2.888 -1.6486 -0.9702 -1.0639
  242EMI    H1" 4594   4.471   3.783   2.975  1.2047  1.1434 -3.5226
  242EMI    C2" 4595   4.520   3.769   2.771 -0.4047 -0.4095 -0.1576
  242EMI    H2" 4596   4.595   3.690   2.771 -1.3735  1.3388  0.2784
  242EMI    H2" 4597   4.464   3.745   2.681 -0.7420  0.4942  1.7974
  242EMI    H2" 4598   4.565   3.872   2.775 -1.5875 -2.3139 -0.0645
  243EMI     N1 4599   5.677   6.749   0.318 -0.6469 -0.0750 -0.1841
  243EMI     C2 4600   5.688   6.690   0.436  0.2976 -1.0699  0.5337
  243EMI     N3 4601   5.723   6.781   0.528 -0.1709  0.7121  0.3698
  243EMI     C4 4602   5.750   6.899   0.460 -0.4767 -0.3012  0.1973
  243EMI     C5 4603   5.711   6.879   0.333 -0.3385 -0.6738  0.0980
  243EMI     H2 4604   5.668   6.589   0.461 -0.4118 -0.8654 -0.1573
  243EMI     H4 4605   5.789   6.998   0.498  0.9921  0.7844 -0.3662
  243EMI     H5 4606   5.704   6.952   0.254  2.0631  0.9301 -1.5085
  243EMI    C1' 4607   5.752   6.777   0.666 -0.2176 -0.0597 -0.2640
  243EMI    H1' 4608   5.733   6.878   0.720 -0.9535  1.6661 -0.4671
  243EMI    H1' 4609   5.688   6.699   0.710 -0.9553  1.9825  0.9212
  243EMI    H1' 4610   5.855   6.748   0.680  0.9373 -0.5749 -0.9752
  243EMI    C1" 4611   5.639   6.689   0.182 -0.4402 -0.6094  0.1785
  243EMI    H1" 4612   5.558   6.741   0.133  1.3190 -0.6697  2.8443
  243EMI    H1" 4613   5.605   6.589   0.197  0.1633 -0.9157  1.2711
  243EMI    C2" 4614   5.760   6.678   0.080  1.0473 -0.3904  0.3583
  243EMI    H2" 4615   5.835   6.600   0.105  0.8976  0.0074  0.7829
  243EMI    H2" 4616   5.728   6.668  -0.024 -1.2473  2.5767  0.4569
  243EMI    H2" 4617   5.814   6.777   0.074  0.7785 -0.0663  0.5567
  244EMI     N1 4618   3.300   5.377   3.346 -0.1360 -0.1153  0.3744
  244EMI     C2 4619   3.314   5.420   3.217 -0.3774 -0.1512  0.4706
  244EMI     N3 4620   3.370   5.313   3.148 -0.1835 -0.1945  0.0075
  244EMI     C4 4621   3.398   5.211   3.236  0.0143  0.1042 -0.4945
  244EMI     C5 4622   3.354   5.251   3.358 -0.1081 -0.8990 -0.1218
  244EMI     H2 4623   3.272   5.510   3.168 -1.6682  0.5248  0.2093
  244EMI     H4 4624   3.445   5.115   3.220  0.6460  0.6414  0.6281
  244EMI     H5 4625   3.353   5.199   3.454 -0.7658 -2.0568 -0.5769
  244EMI    C1' 4626   3.394   5.284   3.001 -0.5115 -0.1361 -0.4726
  244EMI    H1' 4627   3.458   5.198   2.987 -1.6841 -0.9129  0.8572
  244EMI    H1' 4628   3.303   5.286   2.950  1.6809  0.0489  0.1295
  244EMI    H1' 4629   3.452   5.361   2.950 -2.4862 -0.6100 -0.2960
  244EMI    C1" 4630   3.274   5.460   3.462  0.2824 -0.8369  0.9519
  244EMI    H1" 4631   3.337   5.555   3.454  3.0517  3.7840  0.2997
  244EMI    H1" 4632   3.307   5.399   3.547 -0.2552  0.1216  3.0008
  244EMI    C2" 4633   3.121   5.485   3.480  0.6265  0.0874 -0.0494
  244EMI    H2" 4634   3.114   5.542   3.571  0.0105  1.2734 -0.0467
  244EMI    H2" 4635   3.080   5.544   3.397 -1.9345 -1.0737 -1.2967
  244EMI    H2" 4636   3.062   5.397   3.485 -1.5485  0.5069  0.9382
  245EMI     N1 4637   6.359   1.695   3.474 -0.6643 -0.3425 -0.1136
  245EMI     C2 4638   6.400   1.567   3.443 -0.5766  0.8521 -0.2069
  245EMI     N3 4639   6.310   1.474   3.483  0.5746  0.2266 -0.1874
  245EMI     C4 4640   6.208   1.549   3.538 -0.3581 -0.0315  0.0048
  245EMI     C5 4641   6.234   1.683   3.526 -0.4726 -0.0048 -0.1720
  245EMI     H2 4642   6.494   1.541   3.393  0.2754  2.7910 -0.2996
  245EMI     H4 4643   6.112   1.506   3.565 -0.2600  0.7624 -0.7211
  245EMI     H5 4644   6.166   1.752   3.553  0.7681 -0.2859 -2.9402
  245EMI    C1' 4645   6.305   1.332   3.455  0.3918  0.2895 -0.1304
  245EMI    H1' 4646   6.246   1.287   3.541 -0.4858 -1.4433  1.6210
  245EMI    H1' 4647   6.251   1.317   3.358 -2.6855  0.7800  0.3835
  245EMI    H1' 4648   6.413   1.298   3.439  0.4071  0.5331  2.4222
  245EMI    C1" 4649   6.419   1.825   3.433  0.1560  0.4136  0.1952
  245EMI    H1" 4650   6.524   1.839   3.464  0.3740 -0.7081  0.8807
  245EMI    H1" 4651   6.367   1.899   3.491  0.5955 -0.0201  0.8218
  245EMI    C2" 4652   6.394   1.847   3.284 -0.1143 -0.3455  0.1169
  245EMI    H2" 4653   6.436   1.945   3.264  1.1170 -1.4492 -0.0893
  245EMI    H2" 4654   6.438   1.765   3.224  1.2405  0.3920 -0.6535
  245EMI    H2" 4655   6.284   1.847   3.253 -2.1898  0.9188 -1.5697
  246EMI     N1 4656   0.391   1.241   1.129 -0.2064 -0.2273 -0.6451
  246EMI     C2 4657   0.515   1.240   1.075  0.2718  0.3291 -0.4147
  246EMI     N3 4658   0.533   1.132   1.004 -0.2151  0.1974 -0.2548
  246EMI     C4 4659   0.436   1.041   1.035 -0.6754 -0.6120 -0.4283
  246EMI     C5 4660   0.342   1.109   1.115  0.0391 -0.5665  0.3608
  246EMI     H2 4661   0.587   1.320   1.070 -1.7440 -0.2862  2.1930
  246EMI     H4 4662   0.427   0.938   0.993  1.5344  1.2433 -0.3400
  246EMI     H5 4663   0.242   1.069   1.141 -1.2386 -1.5604 -2.8255
  246EMI    C1' 4664   0.641   1.104   0.909  0.1757  0.2880  0.5630
  246EMI    H1' 4665   0.601   1.095   0.804  2.8682 -1.5930  1.0472
  246EMI    H1' 4666   0.725   1.164   0.926 -1.5888 -2.6415 -2.6553
  246EMI    H1' 4667   0.685   1.013   0.935  0.4205 -1.3880 -0.5866
  246EMI    C1" 4668   0.322   1.344   1.203  0.6009  0.4659  0.2335
  246EMI    H1" 4669   0.209   1.328   1.188 -2.4668 -0.4811  0.2187
  246EMI    H1" 4670   0.342   1.439   1.169 -0.3001  2.6872  2.2813
  246EMI    C2" 4671   0.358   1.339   1.353 -0.3544 -0.3989  0.1208
  246EMI    H2" 4672   0.461   1.363   1.372 -3.1876 -1.9545  0.1027
  246EMI    H2" 4673   0.292   1.404   1.408 -2.2034 -0.0556 -1.3049
  246EMI    H2" 4674   0.341   1.240   1.400 -2.4135 -1.1479  2.8771
  247EMI     N1 4675   1.379   2.609   1.455  0.0530  0.8939 -0.2574
  247EMI     C2 4676   1.324   2.611   1.329 -0.4217  0.3282 -0.1202
  247EMI     N3 4677   1.414   2.566   1.239  0.0162 -0.0315 -0.4728
  247EMI     C4 4678   1.528   2.546   1.306 -0.0956 -0.5153 -0.0320
  247EMI     C5 4679   1.516   2.583   1.434 -0.0539 -0.2359  0.4197
  247EMI     H2 4680   1.221   2.644   1.320 -0.9374  0.8526  1.4604
  247EMI     H4 4681   1.620   2.526   1.260  0.5183 -3.2436 -1.0717
  247EMI     H5 4682   1.587   2.594   1.514 -0.4305  0.4352 -1.7866
  247EMI    C1' 4683   1.386   2.527   1.099 -0.1544 -0.0012 -0.0310
  247EMI    H1' 4684   1.285   2.533   1.073 -0.2912  2.0932  0.6411
  247EMI    H1' 4685   1.442   2.591   1.030  1.1158  1.9433 -3.4085
  247EMI    H1' 4686   1.414   2.427   1.079  0.8405  0.8085 -1.2588
  247EMI    C1" 4687   1.335   2.657   1.585 -0.3339 -0.0962  0.2092
  247EMI    H1" 4688   1.233   2.682   1.578  1.0045  1.4867 -0.8517
  247EMI    H1" 4689   1.403   2.738   1.622  0.0650  2.0546  1.5737
  247EMI    C2" 4690   1.329   2.541   1.690 -0.0892  0.6324  0.1105
  247EMI    H2" 4691   1.424   2.491   1.693  1.4678 -0.6971 -0.3737
  247EMI    H2" 4692   1.304   2.590   1.783  1.7624 -0.2047 -1.1333
  247EMI    H2" 4693   1.252   2.470   1.664  0.6052 -0.4732  0.9201
  248EMI     N1 4694   4.731   0.526   2.894 -0.1512 -0.2229 -0.5727
  248EMI     C2 4695   4.761   0.487   2.773  0.7838  0.0342 -0.4887
  248EMI     N3 4696   4.702   0.560   2.677  0.1934  0.4248 -0.1713
  248EMI     C4 4697   4.624   0.649   2.742 -0.6289  0.0764  0.3422
  248EMI     C5 4698   4.637   0.631   2.878  0.5702 -0.2056  0.0474
  248EMI     H2 4699   4.837   0.409   2.762 -0.1521 -0.9731  1.1220
  248EMI     H4 4700   4.553   0.717   2.701 -2.4838  0.1833  0.7346
  248EMI     H5 4701   4.588   0.681   2.958 -1.4693 -0.4713 -0.6620
  248EMI    C1' 4702   4.716   0.569   2.532 -0.3356 -0.2119 -0.4232
  248EMI    H1' 4703   4.658   0.483   2.479 -0.9817 -1.3764 -1.2286
  248EMI    H1' 4704   4.683   0.665   2.495  2.5514 -1.3598  2.0792
  248EMI    H1' 4705   4.819   0.565   2.502 -1.7146  0.8128  1.7081
  248EMI    C1" 4706   4.774   0.477   3.029  0.2521 -0.4665  0.7424
  248EMI    H1" 4707   4.845   0.404   3.015 -4.7227  0.1660  0.2874
  248EMI    H1" 4708   4.703   0.416   3.080 -1.8545 -2.9700  0.7948
  248EMI    C2" 4709   4.851   0.583   3.102 -0.0080 -0.4815  0.3110
  248EMI    H2" 4710   4.919   0.626   3.034 -0.2065  1.4401  3.5279
  248EMI    H2" 4711   4.783   0.657   3.141  1.9309  0.0047  3.9706
  248EMI    H2" 4712   4.909   0.537   3.184 -1.2916  0.9896 -1.3431
  249EMI     N1 4713   0.910   3.256   5.105 -0.1410  0.1983  0.1068
  249EMI     C2 4714   0.998   3.347   5.146 -0.2096 -0.0289 -0.1268
  249EMI     N3 4715   1.058   3.308   5.265 -0.3069 -0.3295  0.5996
  249EMI     C4 4716   1.013   3.180   5.287  0.3059 -0.1157  0.9790
  249EMI     C5 4717   0.921   3.146   5.189  0.6416 -0.1466 -0.0834
  249EMI     H2 4718   1.019   3.438   5.091  0.4239  0.3477 -0.6388
  249EMI     H4 4719   1.039   3.111   5.365 -0.5711  2.4969  0.7641
  249EMI     H5 4720   0.868   3.053   5.181 -1.9146 -1.0179 -0.0907
  249EMI    C1' 4721   1.169   3.372   5.337  0.3730 -0.4813  0.1715
  249EMI    H1' 4722   1.217   3.454   5.275  0.6696  2.0274  0.9490
  249EMI    H1' 4723   1.137   3.418   5.428  2.3772 -4.2917 -0.4887
  249EMI    H1' 4724   1.249   3.302   5.361 -0.3649  2.2401  0.5776
  249EMI    C1" 4725   0.825   3.247   4.986  0.3062  1.2819  0.0405
  249EMI    H1" 4726   0.850   3.159   4.920  1.7531  0.2790 -0.5909
  249EMI    H1" 4727   0.848   3.329   4.927  1.8045 -1.7463  1.5102
  249EMI    C2" 4728   0.675   3.237   5.016  0.0554 -0.6130  1.2203
  249EMI    H2" 4729   0.641   3.331   5.055  1.0526 -2.8905  6.1207
  249EMI    H2" 4730   0.634   3.212   4.925 -0.8718  0.2358  1.7464
  249EMI    H2" 4731   0.655   3.151   5.085 -1.8404 -0.1049  0.1841
  250EMI     N1 4732   2.650   6.690   4.257  0.2255  0.4690 -0.2237
  250EMI     C2 4733   2.656   6.741   4.131  0.2855 -0.8921  0.4828
  250EMI     N3 4734   2.776   6.716   4.082 -0.3646  0.0554  0.3588
  250EMI     C4 4735   2.848   6.648   4.179 -0.4762  0.2323 -0.3115
  250EMI     C5 4736   2.770   6.636   4.284 -0.1008 -0.3220  0.1988
  250EMI     H2 4737   2.579   6.799   4.082  0.3141 -1.9095 -0.1730
  250EMI     H4 4738   2.944   6.608   4.171  1.5333  0.9387 -0.6679
  250EMI     H5 4739   2.795   6.586   4.374  2.8089  0.4856 -2.3184
  250EMI    C1' 4740   2.841   6.755   3.958  0.5601  1.0607  0.0342
  250EMI    H1' 4741   2.915   6.677   3.941 -1.0166  0.7870 -0.1151
  250EMI    H1' 4742   2.773   6.764   3.873  0.5716 -1.1797  0.3598
  250EMI    H1' 4743   2.887   6.850   3.980  0.3772 -0.2531  1.6862
  250EMI    C1" 4744   2.537   6.678   4.360 -0.5411  0.7614 -0.0111
  250EMI    H1" 4745   2.536   6.581   4.405 -0.7992 -0.6727  0.9693
  250EMI    H1" 4746   2.439   6.689   4.313  0.6786  1.4152 -1.8069
  250EMI    C2" 4747   2.551   6.789   4.464  0.3960 -0.9079 -0.0163
  250EMI    H2" 4748   2.537   6.893   4.418 -0.3853 -1.2074 -2.2745
  250EMI    H2" 4749   2.459   6.776   4.527 -2.4973  0.7478 -0.0435
  250EMI    H2" 4750   2.643   6.779   4.523  0.4513 -2.0119  0.9465
  251EMI     N1 4751   1.268   6.463   5.433 -0.6737 -0.4101 -0.2479
  251EMI     C2 4752   1.192   6.570   5.392 -0.1967  0.3985 -0.3485
  251EMI     N3 4753   1.226   6.674   5.467 -0.4696  0.9199  0.6031
  251EMI     C4 4754   1.325   6.635   5.560  0.2396  0.0411 -0.5908
  251EMI     C5 4755   1.350   6.502   5.532 -0.5061 -0.8000  0.4378
  251EMI     H2 4756   1.132   6.576   5.302 -0.1860  3.0971  0.7488
  251EMI     H4 4757   1.374   6.702   5.635 -0.3018  2.3490 -0.3590
  251EMI     H5 4758   1.432   6.446   5.582  2.4847 -1.0332 -0.3814
  251EMI    C1' 4759   1.195   6.816   5.452 -0.1883 -0.0165 -0.2109
  251EMI    H1' 4760   1.124   6.841   5.535 -0.4593  0.6484  4.7397
  251EMI    H1' 4761   1.283   6.883   5.460  0.8431  1.7794 -1.3714
  251EMI    H1' 4762   1.154   6.834   5.359  2.9019  0.6273 -0.4210
  251EMI    C1" 4763   1.279   6.329   5.360  0.2568 -0.3555  1.1890
  251EMI    H1" 4764   1.189   6.291   5.339  1.7376 -0.8879  0.1510
  251EMI    H1" 4765   1.340   6.267   5.420  0.0601 -0.1509 -0.5808
  251EMI    C2" 4766   1.350   6.358   5.225  0.2854  0.8704 -0.3296
  251EMI    H2" 4767   1.399   6.262   5.187  2.5305  2.1043  0.3558
  251EMI    H2" 4768   1.282   6.393   5.150 -1.3010 -2.0766 -3.8880
  251EMI    H2" 4769   1.435   6.419   5.249  1.0285  0.7870  0.7978
  252EMI     N1 4770   2.494   6.697   0.543 -0.1650 -0.4377 -0.0021
  252EMI     C2 4771   2.623   6.708   0.488  0.3618 -0.0530 -0.0162
  252EMI     N3 4772   2.689   6.590   0.504  0.1248 -0.0495  0.7542
  252EMI     C4 4773   2.600   6.511   0.572  0.0476 -0.3712 -0.1755
  252EMI     C5 4774   2.481   6.571   0.589 -0.0202  0.6326  0.0782
  252EMI     H2 4775   2.661   6.788   0.434 -0.2145  0.2048  1.1719
  252EMI     H4 4776   2.626   6.410   0.601 -0.6964  1.4641 -0.1736
  252EMI     H5 4777   2.394   6.530   0.632  0.2955 -0.2203  1.1467
  252EMI    C1' 4778   2.813   6.529   0.439  0.2283 -0.2084 -0.2577
  252EMI    H1' 4779   2.783   6.460   0.365  1.2944  1.8966  1.9169
  252EMI    H1' 4780   2.868   6.603   0.392 -2.0326 -0.5533  1.2578
  252EMI    H1' 4781   2.872   6.479   0.518  1.7086  2.2148  2.1973
  252EMI    C1" 4782   2.381   6.793   0.536  0.1620  1.0207  0.5661
  252EMI    H1" 4783   2.418   6.896   0.516  1.9044 -1.5174 -1.0041
  252EMI    H1" 4784   2.307   6.783   0.622 -1.4063 -1.0492  1.7292
  252EMI    C2" 4785   2.305   6.754   0.405  0.5382 -0.2252 -0.2853
  252EMI    H2" 4786   2.372   6.775   0.323  0.0136  2.2969  0.7178
  252EMI    H2" 4787   2.282   6.649   0.411  0.1700  1.6209  0.3439
  252EMI    H2" 4788   2.225   6.824   0.386 -1.6960 -2.1690  1.3712
  253EMI     N1 4789   1.033   5.194   2.131  0.4320 -0.4347 -0.7520
  253EMI     C2 4790   0.970   5.078   2.169 -0.8445 -0.5710 -0.4402
  253EMI     N3 4791   0.838   5.099   2.182 -0.5495  0.1054  0.5326
  253EMI     C4 4792   0.815   5.233   2.163 -0.3681 -0.7110 -0.6236
  253EMI     C5 4793   0.931   5.286   2.120  0.2058  0.2539 -0.8954
  253EMI     H2 4794   1.025   4.989   2.184 -0.9526 -1.4627 -0.6013
  253EMI     H4 4795   0.719   5.290   2.176  1.9476  0.1264 -2.2732
  253EMI     H5 4796   0.941   5.396   2.106  1.2381  0.4874 -0.1535
  253EMI    C1' 4797   0.728   5.009   2.214  0.0004 -0.0328 -0.0343
  253EMI    H1' 4798   0.709   4.937   2.136 -0.5642  0.1051 -0.4238
  253EMI    H1' 4799   0.764   4.955   2.295  1.4276 -0.7053  0.8172
  253EMI    H1' 4800   0.637   5.058   2.248  0.1634  0.5444  1.6280
  253EMI    C1" 4801   1.178   5.229   2.120  0.8056  0.3918 -0.1250
  253EMI    H1" 4802   1.226   5.226   2.218  1.2739  2.8753 -0.0689
  253EMI    H1" 4803   1.189   5.336   2.084 -2.5253  3.8837 -1.5034
  253EMI    C2" 4804   1.249   5.130   2.032  0.2096 -0.3875  0.4148
  253EMI    H2" 4805   1.337   5.172   1.984 -0.2208  2.0604  0.1818
  253EMI    H2" 4806   1.266   5.043   2.089  2.9446  2.0313 -0.0480
  253EMI    H2" 4807   1.187   5.111   1.946 -0.7405  1.1093  0.2834
  254EMI     N1 4808   2.531   1.874   5.445  0.4200 -0.0758 -0.4404
  254EMI     C2 4809   2.541   1.751   5.504 -0.4385 -0.4773 -1.0319
  254EMI     N3 4810   2.417   1.711   5.536  0.3282  0.1025 -0.5929
  254EMI     C4 4811   2.328   1.811   5.499 -0.4494  0.2448  0.7198
  254EMI     C5 4812   2.398   1.911   5.447  0.3497  0.5682  1.0004
  254EMI     H2 4813   2.624   1.691   5.523 -2.6121 -0.7788 -3.1593
  254EMI     H4 4814   2.221   1.822   5.519 -1.4847  1.0391  0.7128
  254EMI     H5 4815   2.355   2.001   5.402  0.6599 -0.9402 -0.2796
  254EMI    C1' 4816   2.380   1.585   5.596 -0.0941 -0.4649  0.0051
  254EMI    H1' 4817   2.454   1.505   5.568  0.4970 -1.5178  1.0650
  254EMI    H1' 4818   2.383   1.615   5.702  3.4041 -0.8799  2.9978
  254EMI    H1' 4819   2.283   1.551   5.561  1.0215 -4.0500 -2.0416
  254EMI    C1" 4820   2.629   1.973   5.392  0.0347 -0.3621 -0.7370
  254EMI    H1" 4821   2.576   2.043   5.327 -0.1793  0.3298  2.4078
  254EMI    H1" 4822   2.700   1.923   5.329 -2.5104 -3.0047  0.4394
  254EMI    C2" 4823   2.692   2.045   5.509 -0.3168 -0.6867  0.3324
  254EMI    H2" 4824   2.787   2.092   5.476 -3.9062 -0.6949 -3.6911
  254EMI    H2" 4825   2.611   2.114   5.549  1.2974 -0.2076 -1.3918
  254EMI    H2" 4826   2.700   1.973   5.593 -2.6542  3.3927 -0.7504
  255EMI     N1 4827   2.471   2.967   1.134 -0.4407  0.2134 -0.3911
  255EMI     C2 4828   2.598   2.976   1.086 -0.4102  0.5444 -0.3529
  255EMI     N3 4829   2.600   2.935   0.960 -0.1560 -0.0088  0.2438
  255EMI     C4 4830   2.476   2.898   0.921 -0.1106  0.4926  0.4091
  255EMI     C5 4831   2.394   2.921   1.026 -0.6747  0.4922  0.3909
  255EMI     H2 4832   2.684   2.986   1.154  0.5526  2.4753  1.3143
  255EMI     H4 4833   2.447   2.845   0.826  1.1221 -1.1227 -2.3018
  255EMI     H5 4834   2.285   2.912   1.021 -0.2547  0.9064  0.6213
  255EMI    C1' 4835   2.715   2.915   0.874 -0.3083 -0.3353  0.2801
  255EMI    H1' 4836   2.682   2.883   0.778  1.8204  1.5627  1.7259
  255EMI    H1' 4837   2.765   3.013   0.861  0.1745  0.5166 -1.7119
  255EMI    H1' 4838   2.778   2.841   0.921  1.7776 -0.4167 -0.2831
  255EMI    C1" 4839   2.420   2.994   1.273 -0.3141  0.1791  0.1325
  255EMI    H1" 4840   2.422   2.902   1.331 -3.3117  2.5524  2.3444
  255EMI    H1" 4841   2.321   3.042   1.266  1.3103  4.0090  1.4828
  255EMI    C2" 4842   2.502   3.094   1.354  0.7410  0.3680 -0.1217
  255EMI    H2" 4843   2.440   3.124   1.440  0.1320 -1.3843 -0.3999
  255EMI    H2" 4844   2.590   3.044   1.380 -0.5203 -0.7895  0.9808
  255EMI    H2" 4845   2.525   3.179   1.294  2.1463 -3.8988  0.2796
  256EMI     N1 4846   3.053   3.841   4.884 -0.1200  0.0396 -0.5895
  256EMI     C2 4847   3.110   3.731   4.947 -0.0466  0.7552  1.6060
  256EMI     N3 4848   3.021   3.628   4.951  0.1908 -0.1674 -0.8046
  256EMI     C4 4849   2.909   3.683   4.903  0.4668  0.6315  0.2636
  256EMI     C5 4850   2.924   3.813   4.862 -0.2675 -0.6761 -0.6979
  256EMI     H2 4851   3.216   3.719   4.965  1.0444  0.2185 -3.1332
  256EMI     H4 4852   2.815   3.632   4.894 -0.9196  0.3900  1.5939
  256EMI     H5 4853   2.855   3.874   4.805 -0.3229  0.5441  0.3510
  256EMI    C1' 4854   3.033   3.487   4.994 -0.8130  0.9391  0.0974
  256EMI    H1' 4855   2.986   3.424   4.918 -3.5659  0.9208 -0.8627
  256EMI    H1' 4856   3.139   3.462   4.994  2.2067 -0.5227  1.2068
  256EMI    H1' 4857   2.991   3.475   5.088 -1.9045  0.7425 -1.0145
  256EMI    C1" 4858   3.112   3.970   4.833 -0.7190  0.7368 -0.2904
  256EMI    H1" 4859   3.033   4.014   4.773  2.9686  1.1057 -1.6137
  256EMI    H1" 4860   3.210   3.943   4.778  2.0565  1.2079  0.0497
  256EMI    C2" 4861   3.156   4.060   4.945 -0.0604 -0.5706  0.8881
  256EMI    H2" 4862   3.242   4.011   4.983 -0.4487 -0.9771 -0.9373
  256EMI    H2" 4863   3.181   4.160   4.922  0.8261 -1.8088 -0.1237
  256EMI    H2" 4864   3.078   4.057   5.026 -1.1953  1.2039 -2.1637
  257EMI     N1 4865   4.292   5.168   2.179  0.2060  0.2892 -0.5372
  257EMI     C2 4866   4.195   5.176   2.087 -0.0257 -0.4374 -0.3717
  257EMI     N3 4867   4.171   5.054   2.027 -0.2581  0.6182 -0.3497
  257EMI     C4 4868   4.244   4.962   2.099  0.0648  0.4262 -0.4727
  257EMI     C5 4869   4.321   5.029   2.195  0.3050 -0.3700  0.2053
  257EMI     H2 4870   4.139   5.269   2.069 -0.3703 -1.2754  0.8038
  257EMI     H4 4871   4.240   4.857   2.087  1.1976  1.7178  2.2264
  257EMI     H5 4872   4.396   4.988   2.260 -0.1333  2.0712 -4.6150
  257EMI    C1' 4873   4.068   5.008   1.940 -0.5281 -0.5822  0.6539
  257EMI    H1' 4874   3.968   5.016   1.985 -2.0199  2.2948  0.7693
  257EMI    H1' 4875   4.066   5.081   1.856  0.9497  1.0052  1.6190
  257EMI    H1' 4876   4.093   4.903   1.906 -3.2886 -2.2145  1.7481
  257EMI    C1" 4877   4.361   5.268   2.261 -0.2050 -0.4258  0.7389
  257EMI    H1" 4878   4.427   5.328   2.198  1.4159 -0.1548  1.0155
  257EMI    H1" 4879   4.417   5.214   2.341  0.1930 -1.9889  0.7115
  257EMI    C2" 4880   4.266   5.368   2.314  0.7421 -0.0759 -0.6687
  257EMI    H2" 4881   4.198   5.410   2.242 -0.6169  2.6600 -2.1723
  257EMI    H2" 4882   4.213   5.324   2.397  0.6211 -0.8547  3.9953
  257EMI    H2" 4883   4.327   5.452   2.341 -1.5757 -1.6718 -0.9954
  258EMI     N1 4884   6.444   2.328   1.409  0.3167 -0.1268  0.8843
  258EMI     C2 4885   6.335   2.292   1.335  0.1052 -0.2305 -0.4019
  258EMI     N3 4886   6.264   2.398   1.303  0.1718  0.6414  0.0783
  258EMI     C4 4887   6.334   2.504   1.351  0.5678 -0.9869  0.3339
  258EMI     C5 4888   6.448   2.465   1.415  0.0327  0.0523  0.0642
  258EMI     H2 4889   6.319   2.196   1.301  0.3978  0.9682  1.0719
  258EMI     H4 4890   6.300   2.608   1.338  0.2264 -0.7146 -0.5971
  258EMI     H5 4891   6.529   2.531   1.460 -0.0330  1.8377 -0.5204
  258EMI    C1' 4892   6.127   2.399   1.250  0.3366 -0.2327  0.3312
  258EMI    H1' 4893   6.094   2.301   1.209  0.6904 -3.3949  1.2765
  258EMI    H1' 4894   6.067   2.430   1.337  0.1046 -0.0045 -2.6385
  258EMI    H1' 4895   6.109   2.476   1.179  0.3083 -1.3085  0.7604
  258EMI    C1" 4896   6.555   2.258   1.477 -0.1225  0.2578  0.5762
  258EMI    H1" 4897   6.554   2.276   1.588  0.7344 -2.4900  2.2501
  258EMI    H1" 4898   6.650   2.303   1.442 -0.4626 -1.4314  2.2725
  258EMI    C2" 4899   6.553   2.105   1.459 -0.3881  0.0085  0.1331
  258EMI    H2" 4900   6.563   2.085   1.350 -0.5897  2.4124 -3.0114
  258EMI    H2" 4901   6.634   2.067   1.522 -0.6050  1.0276 -0.0426
  258EMI    H2" 4902   6.461   2.066   1.499  0.4541  0.0434 -0.8888
  259EMI     N1 4903   0.602   4.719   3.639  0.6888 -0.3671 -0.2458
  259EMI     C2 4904   0.573   4.822   3.714  0.0185 -1.2133  1.0464
  259EMI     N3 4905   0.654   4.817   3.820  0.2125 -0.7473 -0.3056
  259EMI     C4 4906   0.736   4.706   3.803 -0.6213  0.5787 -0.0033
  259EMI     C5 4907   0.702   4.648   3.691 -0.3520 -0.3018 -0.4344
  259EMI     H2 4908   0.502   4.904   3.689 -1.5792 -0.9020  0.8403
  259EMI     H4 4909   0.824   4.688   3.865  0.3827  2.7822  1.0705
  259EMI     H5 4910   0.753   4.561   3.648  0.1246 -1.6622  1.3551
  259EMI    C1' 4911   0.656   4.907   3.941 -0.1316  0.1639 -0.4248
  259EMI    H1' 4912   0.732   4.983   3.936 -0.8801  0.6420 -0.3220
  259EMI    H1' 4913   0.561   4.956   3.945  2.0797 -0.0761 -0.9565
  259EMI    H1' 4914   0.661   4.846   4.032 -1.8116 -2.1183 -0.3338
  259EMI    C1" 4915   0.572   4.693   3.495 -0.6284  0.2986  0.0304
  259EMI    H1" 4916   0.645   4.627   3.455 -1.1019  1.0443 -2.3441
  259EMI    H1" 4917   0.571   4.781   3.428  1.5571  1.0393 -0.2048
  259EMI    C2" 4918   0.441   4.615   3.483 -0.6957  0.6449 -0.2403
  259EMI    H2" 4919   0.369   4.657   3.555  0.4116 -0.8914 -1.1921
  259EMI    H2" 4920   0.410   4.621   3.376  2.3522 -2.7585  1.1264
  259EMI    H2" 4921   0.459   4.506   3.514  1.9697 -0.9458  0.0897
  260EMI     N1 4922   1.927   6.403   2.155 -0.2450  0.3343 -0.0578
  260EMI     C2 4923   2.040   6.431   2.082 -0.3121  0.0971 -0.0812
  260EMI     N3 4924   2.146   6.384   2.153 -0.1828 -0.2006 -0.0890
  260EMI     C4 4925   2.111   6.328   2.269 -0.3145  0.2074 -0.3314
  260EMI     C5 4926   1.978   6.342   2.275  0.2554 -0.1708 -0.3383
  260EMI     H2 4927   2.044   6.484   1.988  0.2048  1.2198  0.6398
  260EMI     H4 4928   2.179   6.283   2.336  1.7319 -2.3566  1.5989
  260EMI     H5 4929   1.920   6.304   2.357  1.4088 -2.3742 -2.7620
  260EMI    C1' 4930   2.285   6.367   2.103 -0.8456 -0.0056  0.4303
  260EMI    H1' 4931   2.358   6.354   2.184  0.0516 -0.8854  2.4975
  260EMI    H1' 4932   2.289   6.281   2.037 -2.0140 -1.4899  0.8820
  260EMI    H1' 4933   2.328   6.451   2.044  1.2638 -0.3208 -0.9318
  260EMI    C1" 4934   1.787   6.432   2.128 -0.3694  0.2070  1.1940
  260EMI    H1" 4935   1.715   6.359   2.180 -0.7433 -0.5247  3.2111
  260EMI    H1" 4936   1.786   6.419   2.020  2.5812 -0.5516 -4.1791
  260EMI    C2" 4937   1.757   6.579   2.144  0.0610  0.1755 -0.1818
  260EMI    H2" 4938   1.807   6.645   2.073 -0.2254  3.9005  0.6088
  260EMI    H2" 4939   1.652   6.592   2.124  2.1971 -2.4833 -3.2271
  260EMI    H2" 4940   1.787   6.601   2.250  0.7222  0.7037  0.7562
  261EMI     N1 4941   3.890   3.543   1.687 -0.4971 -0.1388 -0.2522
  261EMI     C2 4942   3.991   3.559   1.775  0.1525 -0.2762 -0.5141
  261EMI     N3 4943   3.935   3.567   1.898  0.4912 -0.9929  0.0986
  261EMI     C4 4944   3.797   3.555   1.882  0.4538  0.3699  0.2898
  261EMI     C5 4945   3.765   3.545   1.756  0.4248 -0.2050 -0.6711
  261EMI     H2 4946   4.093   3.572   1.742 -1.0300 -2.6207 -0.4355
  261EMI     H4 4947   3.725   3.545   1.968 -0.8540  1.1261 -0.4481
  261EMI     H5 4948   3.667   3.535   1.714  1.9153  0.9199 -1.8830
  261EMI    C1' 4949   3.996   3.564   2.024  0.5117 -0.0329 -0.1936
  261EMI    H1' 4950   3.927   3.529   2.100  0.9517  1.3549 -2.0598
  261EMI    H1' 4951   4.087   3.508   2.032 -0.7733  1.4407 -0.0608
  261EMI    H1' 4952   4.005   3.669   2.055 -1.7733 -0.7357 -0.2849
  261EMI    C1" 4953   3.890   3.523   1.538  0.7150  0.3590 -0.9547
  261EMI    H1" 4954   3.784   3.504   1.513 -1.9021  2.2861  2.2942
  261EMI    H1" 4955   3.952   3.438   1.510 -0.2893 -1.2610  2.8769
  261EMI    C2" 4956   3.922   3.651   1.466  0.9034 -0.1812  0.3877
  261EMI    H2" 4957   3.878   3.746   1.508 -0.1393  0.4969  2.3489
  261EMI    H2" 4958   4.033   3.664   1.457 -0.8071 -1.0069  0.1667
  261EMI    H2" 4959   3.881   3.637   1.362  2.3736  1.1829 -0.2574
  262EMI     N1 4960   0.068   5.474   2.561  0.2416 -0.4672 -0.0229
  262EMI     C2 4961   0.173   5.425   2.631  0.5023  1.2045  0.2920
  262EMI     N3 4962   0.276   5.393   2.552  0.0855 -1.4734 -0.2205
  262EMI     C4 4963   0.233   5.413   2.425  0.1150 -0.3917 -0.0106
  262EMI     C5 4964   0.112   5.468   2.429 -0.2848  0.0186 -0.0245
  262EMI     H2 4965   0.177   5.410   2.735 -0.0306 -1.4271 -0.4893
  262EMI     H4 4966   0.280   5.407   2.332  0.5478 -0.0434 -0.6728
  262EMI     H5 4967   0.064   5.506   2.339 -1.0038  0.6905  2.0407
  262EMI    C1' 4968   0.404   5.324   2.573 -0.3005 -0.4534 -0.6055
  262EMI    H1' 4969   0.458   5.323   2.483  1.0349  0.9341 -1.8491
  262EMI    H1' 4970   0.479   5.363   2.651  1.9075 -0.2424  1.3838
  262EMI    H1' 4971   0.376   5.222   2.603 -0.9718 -0.1221  2.2764
  262EMI    C1" 4972  -0.067   5.523   2.605  0.2942 -0.0478  0.5792
  262EMI    H1" 4973  -0.144   5.493   2.532  0.2781  1.6345 -0.6210
  262EMI    H1" 4974  -0.068   5.632   2.604 -1.0343 -0.4345  0.7559
  262EMI    C2" 4975  -0.114   5.478   2.739 -0.2661  0.0700 -0.0091
  262EMI    H2" 4976  -0.217   5.503   2.739  1.6624  0.3629 -0.2859
  262EMI    H2" 4977  -0.093   5.373   2.753 -0.3071 -0.2597 -0.9497
  262EMI    H2" 4978  -0.083   5.538   2.825 -0.8602  0.4452 -0.1775
  263EMI     N1 4979   2.583   0.364   3.036  0.3263  0.1221  0.3423
  263EMI     C2 4980   2.487   0.452   3.016  0.2702  0.3212  0.4037
  263EMI     N3 4981   2.477   0.485   2.887 -0.2753  0.5648 -0.2088
  263EMI     C4 4982   2.559   0.399   2.820  0.0824  0.3995  0.3185
  263EMI     C5 4983   2.622   0.319   2.908  0.4896  0.0260 -0.4657
  263EMI     H2 4984   2.412   0.484   3.090 -2.0451 -1.8158  1.3680
  263EMI     H4 4985   2.562   0.382   2.713 -1.7991 -1.4892  0.5995
  263EMI     H5 4986   2.687   0.233   2.887 -2.4190 -2.7795 -1.2214
  263EMI    C1' 4987   2.374   0.573   2.830 -0.0289  0.0528 -0.1009
  263EMI    H1' 4988   2.294   0.594   2.905  1.1623  0.3226  0.7865
  263EMI    H1' 4989   2.422   0.667   2.796 -0.6136  2.3368  1.2368
  263EMI    H1' 4990   2.327   0.533   2.743 -1.9978  0.8525  0.9628
  263EMI    C1" 4991   2.616   0.279   3.150 -0.2264  0.0758  0.4519
  263EMI    H1" 4992   2.713   0.319   3.180  0.2494 -0.2764 -1.5300
  263EMI    H1" 4993   2.619   0.170   3.120  0.0577  0.6648 -1.6757
  263EMI    C2" 4994   2.508   0.294   3.259 -0.1960 -0.2331  0.6422
  263EMI    H2" 4995   2.520   0.232   3.344 -0.1669  1.9785 -0.7834
  263EMI    H2" 4996   2.515   0.402   3.297 -0.1713  0.6493 -1.3720
  263EMI    H2" 4997   2.414   0.272   3.218  1.2526  0.5753  1.5655
  264EMI     N1 4998   4.640   2.089   0.800 -0.2504  0.1674  0.6594
  264EMI     C2 4999   4.529   2.111   0.736 -0.7895  0.0346  0.3747
  264EMI     N3 5000   4.435   2.138   0.822  0.2764  0.6487  0.3989
  264EMI     C4 5001   4.492   2.157   0.944 -0.3735 -0.1920  0.7503
  264EMI     C5 5002   4.619   2.118   0.934 -0.2370 -0.5072 -0.9469
  264EMI     H2 5003   4.513   2.114   0.627  0.4310  0.9282 -3.0885
  264EMI     H4 5004   4.450   2.184   1.042  1.1985 -1.4290 -0.6678
  264EMI     H5 5005   4.691   2.118   1.013  1.4162 -0.6561 -1.2768
  264EMI    C1' 5006   4.289   2.163   0.806 -0.2130 -0.9189  0.1295
  264EMI    H1' 5007   4.248   2.149   0.901 -1.9526  1.0773 -0.8617
  264EMI    H1' 5008   4.279   2.264   0.775  1.1145 -0.2526 -0.5597
  264EMI    H1' 5009   4.250   2.092   0.738  0.5295  1.8425 -1.7930
  264EMI    C1" 5010   4.772   2.060   0.736 -0.3899 -0.1176 -0.4136
  264EMI    H1" 5011   4.761   2.046   0.623  1.8770 -0.5613 -1.0118
  264EMI    H1" 5012   4.801   1.964   0.785  1.4362  0.0429 -0.9225
  264EMI    C2" 5013   4.856   2.184   0.771  0.0836 -0.1003  0.3525
  264EMI    H2" 5014   4.956   2.189   0.723  1.7042  1.5904 -0.8321
  264EMI    H2" 5015   4.800   2.273   0.749  0.1197 -1.9244  0.5688
  264EMI    H2" 5016   4.875   2.184   0.883 -2.9252 -0.0717  3.5284
  265EMI     N1 5017   5.494   1.965   1.452 -0.7260 -0.2112 -0.1210
  265EMI     C2 5018   5.446   1.985   1.578  0.5502 -0.4593  1.2435
  265EMI     N3 5019   5.547   1.988   1.664  0.2289  0.5414  0.5042
  265EMI     C4 5020   5.663   1.957   1.592 -0.1561  0.1722 -0.4331
  265EMI     C5 5021   5.634   1.951   1.461  0.5040  0.7008 -0.6491
  265EMI     H2 5022   5.340   2.000   1.607 -1.5896  2.4350 -1.8961
  265EMI     H4 5023   5.766   1.956   1.627 -2.1383 -0.4437  0.3116
  265EMI     H5 5024   5.705   1.936   1.376  0.8079  1.5715 -2.6492
  265EMI    C1' 5025   5.551   2.018   1.808  0.8188 -0.2611  0.1740
  265EMI    H1' 5026   5.500   2.113   1.831  1.5359  0.7912 -0.6521
  265EMI    H1' 5027   5.500   1.937   1.862  0.6832 -2.0542  2.0484
  265EMI    H1' 5028   5.657   2.017   1.843 -1.9397 -0.9160  0.0841
  265EMI    C1" 5029   5.420   1.939   1.327  0.5757 -0.1593 -0.8833
  265EMI    H1" 5030   5.485   1.917   1.244 -1.2543 -0.0061 -0.0482
  265EMI    H1" 5031   5.371   2.027   1.298  1.3963 -0.7373 -0.8593
  265EMI    C2" 5032   5.330   1.813   1.333  0.1347 -0.1057 -1.3116
  265EMI    H2" 5033   5.263   1.807   1.246  0.6582  0.9724  0.1377
  265EMI    H2" 5034   5.378   1.716   1.343  0.5521  1.1925  4.1657
  265EMI    H2" 5035   5.247   1.824   1.413 -0.2098 -0.5098  1.5988
  266EMI     N1 5036   5.636   2.987   1.842 -0.6780 -0.2329 -0.1931
  266EMI     C2 5037   5.661   3.007   1.713 -0.0722  0.1754 -0.1205
  266EMI     N3 5038   5.558   2.976   1.632 -0.1645  0.4278  0.5566
  266EMI     C4 5039   5.454   2.950   1.716 -0.2359  0.3157 -0.0191
  266EMI     C5 5040   5.500   2.952   1.843 -0.1031 -0.6467  0.4700
  266EMI     H2 5041   5.762   3.045   1.694 -1.0980 -0.9204  1.2532
  266EMI     H4 5042   5.349   2.933   1.682 -1.0345 -1.3952  0.4849
  266EMI     H5 5043   5.439   2.927   1.932  0.5270 -0.8697 -0.3011
  266EMI    C1' 5044   5.546   2.979   1.483  0.1942 -0.0977  0.4153
  266EMI    H1' 5045   5.511   3.075   1.445 -0.0991 -0.5041  0.4904
  266EMI    H1' 5046   5.640   2.960   1.434  0.6084 -3.1215  1.7867
  266EMI    H1' 5047   5.473   2.902   1.462  0.2063  1.0436  0.2982
  266EMI    C1" 5048   5.714   3.017   1.967 -0.0699 -0.3795  0.6473
  266EMI    H1" 5049   5.655   3.079   2.038 -3.4901 -0.0088  1.4924
  266EMI    H1" 5050   5.814   3.059   1.949  1.6811 -1.2337  1.6866
  266EMI    C2" 5051   5.744   2.892   2.050 -0.0272 -0.0984  0.0984
  266EMI    H2" 5052   5.792   2.925   2.147 -0.2644  1.0585 -0.4230
  266EMI    H2" 5053   5.649   2.837   2.067 -0.5528 -1.6918  1.1943
  266EMI    H2" 5054   5.820   2.829   2.005 -0.3057 -1.1475  1.3100
  267EMI     N1 5055   4.817   5.639   5.382  0.1489 -0.2807  0.0224
  267EMI     C2 5056   4.718   5.698   5.305 -0.3097  0.1410  0.6324
  267EMI     N3 5057   4.746   5.827   5.289  0.4758  0.2153  0.3013
  267EMI     C4 5058   4.873   5.847   5.335  0.7455 -0.1079 -0.4218
  267EMI     C5 5059   4.918   5.734   5.396  0.7064 -0.9901 -0.2686
  267EMI     H2 5060   4.619   5.659   5.276 -2.0347  2.1835 -1.9643
  267EMI     H4 5061   4.921   5.936   5.324 -2.0355 -0.1671  0.1101
  267EMI     H5 5062   5.014   5.714   5.442 -1.8884  1.5362  2.0748
  267EMI    C1' 5063   4.664   5.939   5.235  0.4484  0.8344 -0.1927
  267EMI    H1' 5064   4.607   5.914   5.154  1.0657  3.0098  1.7422
  267EMI    H1' 5065   4.602   5.963   5.319 -0.8535 -0.8839 -0.1327
  267EMI    H1' 5066   4.728   6.026   5.207 -2.4294  1.6434 -2.4017
  267EMI    C1" 5067   4.834   5.500   5.425 -0.6613  0.2600 -0.2001
  267EMI    H1" 5068   4.937   5.481   5.443 -0.9889 -0.4206  0.3990
  267EMI    H1" 5069   4.799   5.436   5.343 -0.3958 -0.5527  2.3560
  267EMI    C2" 5070   4.753   5.455   5.545  0.3414  0.4479  0.2703
  267EMI    H2" 5071   4.753   5.346   5.563 -1.0536 -0.5675  0.7081
  267EMI    H2" 5072   4.789   5.503   5.637 -1.6874 -0.2833 -1.9508
  267EMI    H2" 5073   4.646   5.481   5.540 -1.5293  0.9431  1.9219
  268EMI     N1 5074   3.484   0.914   5.597 -0.1793 -0.5320 -1.1929
  268EMI     C2 5075   3.397   0.813   5.615  0.1793 -0.8300  0.3564
  268EMI     N3 5076   3.318   0.800   5.501  0.6193 -0.3917  0.4041
  268EMI     C4 5077   3.373   0.883   5.408  0.2436 -0.3467 -0.6890
  268EMI     C5 5078   3.471   0.950   5.468 -0.3988  0.2594  0.4772
  268EMI     H2 5079   3.372   0.754   5.709 -1.9805  1.3040 -1.1270
  268EMI     H4 5080   3.358   0.895   5.303  4.7519 -1.6130 -2.1885
  268EMI     H5 5081   3.548   1.021   5.431  1.3998 -0.6633  0.4897
  268EMI    C1' 5082   3.215   0.707   5.462  0.4640 -0.3768  0.0900
  268EMI    H1' 5083   3.254   0.606   5.477  0.5985  2.5831 -0.8480
  268EMI    H1' 5084   3.121   0.724   5.510  1.2282  3.0051 -0.5477
  268EMI    H1' 5085   3.196   0.725   5.357  0.5644  1.6773  2.1007
  268EMI    C1" 5086   3.551   0.988   5.703 -1.4827  0.8258  0.3830
  268EMI    H1" 5087   3.645   1.040   5.675  1.2797  1.4239  0.3477
  268EMI    H1" 5088   3.567   0.909   5.780 -0.2057 -1.8377 -1.7931
  268EMI    C2" 5089   3.457   1.096   5.759 -0.3049  0.2421 -0.6127
  268EMI    H2" 5090   3.426   1.176   5.686 -3.0354  0.1225 -0.7997
  268EMI    H2" 5091   3.367   1.046   5.793  1.5982 -0.5137 -0.3120
  268EMI    H2" 5092   3.500   1.135   5.850 -0.1487 -1.3600  0.8880
  269EMI     N1 5093   4.045   3.770   2.358 -0.4211 -1.1489 -0.7584
  269EMI     C2 5094   3.907   3.748   2.351 -0.3075 -0.1237 -0.4401
  269EMI     N3 5095   3.862   3.811   2.240 -0.3975 -0.0376  0.0678
  269EMI     C4 5096   3.968   3.884   2.184  1.2139 -0.2588  0.6877
  269EMI     C5 5097   4.085   3.860   2.254  0.3307  0.6322 -0.3988
  269EMI     H2 5098   3.841   3.694   2.414 -0.8685  0.2875 -2.0921
  269EMI     H4 5099   3.956   3.940   2.092  1.3843 -1.2399 -1.3536
  269EMI     H5 5100   4.187   3.894   2.265  1.5269  1.2450 -0.0718
  269EMI    C1' 5101   3.726   3.829   2.188 -0.6925 -0.0531  0.4499
  269EMI    H1' 5102   3.723   3.853   2.078 -0.2118 -1.3817 -0.1626
  269EMI    H1' 5103   3.662   3.740   2.208 -3.2518 -0.0348 -2.7320
  269EMI    H1' 5104   3.685   3.909   2.249 -0.2386  2.6856  2.7800
  269EMI    C1" 5105   4.141   3.714   2.451  0.3316 -0.0771 -0.1742
  269EMI    H1" 5106   4.134   3.768   2.547  0.1021  1.3752  1.7256
  269EMI    H1" 5107   4.242   3.732   2.407  2.7610  1.8476 -0.2738
  269EMI    C2" 5108   4.116   3.566   2.476 -0.1502  0.6644  0.6827
  269EMI    H2" 5109   4.197   3.531   2.540  1.9136  0.9342 -0.1429
  269EMI    H2" 5110   4.018   3.553   2.517 -1.4305 -0.5868  0.6470
  269EMI    H2" 5111   4.122   3.519   2.377 -0.2565  2.8537  1.2758
  270EMI     N1 5112   4.885   0.179   1.212 -0.2692  0.9718 -1.0691
  270EMI     C2 5113   4.901   0.119   1.335  0.0247  0.8187  0.1421
  270EMI     N3 5114   4.813   0.176   1.418  0.3447  0.0778  0.3698
  270EMI     C4 5115   4.760   0.293   1.353 -0.0723 -0.2887  0.1015
  270EMI     C5 5116   4.805   0.288   1.226  0.3558 -0.5516 -0.3598
  270EMI     H2 5117   4.971   0.041   1.343 -0.6375  2.4154  1.1893
  270EMI     H4 5118   4.693   0.373   1.391 -2.2663  1.5598 -1.6633
  270EMI     H5 5119   4.787   0.358   1.155  0.8013 -1.0558  2.0095
  270EMI    C1' 5120   4.799   0.156   1.563  0.0168 -0.5264  0.0637
  270EMI    H1' 5121   4.822   0.051   1.586 -0.8492  0.7394  1.1903
  270EMI    H1' 5122   4.877   0.221   1.608 -1.0151  1.1749  0.1646
  270EMI    H1' 5123   4.700   0.188   1.598  1.0584 -0.4928  1.1476
  270EMI    C1" 5124   4.952   0.145   1.084  0.4095  0.7079  0.8499
  270EMI    H1" 5125   5.003   0.051   1.089  0.0484 -0.5985  0.8285
  270EMI    H1" 5126   5.032   0.226   1.067  1.2489 -0.5862 -0.9224
  270EMI    C2" 5127   4.841   0.142   0.973  0.2708  0.7082  0.1125
  270EMI    H2" 5128   4.783   0.233   0.969  1.0180  0.0879 -1.0436
  270EMI    H2" 5129   4.899   0.144   0.875  0.6054  1.3319 -0.1911
  270EMI    H2" 5130   4.783   0.042   0.966 -1.2145 -1.0609  0.0556
  271EMI     N1 5131   1.877   3.132   1.592 -0.2824 -1.0903  0.0579
  271EMI     C2 5132   1.850   3.022   1.526 -0.7146  0.5775  0.2423
  271EMI     N3 5133   1.936   3.009   1.430 -0.4290 -0.9287  0.9402
  271EMI     C4 5134   2.030   3.109   1.436  0.0906 -0.1146  0.4692
  271EMI     C5 5135   2.003   3.182   1.538  0.3969  0.0035 -0.1458
  271EMI     H2 5136   1.764   2.963   1.540  0.3389 -0.7370 -2.0175
  271EMI     H4 5137   2.117   3.121   1.371 -0.1664  0.3676  0.3477
  271EMI     H5 5138   2.066   3.256   1.583  0.0166 -0.7613  0.3869
  271EMI    C1' 5139   1.936   2.915   1.319 -0.2006  0.0182  0.7151
  271EMI    H1' 5140   1.857   2.951   1.247  0.4484 -1.6479 -0.5427
  271EMI    H1' 5141   2.028   2.923   1.260 -1.3832  0.4287  0.6057
  271EMI    H1' 5142   1.907   2.815   1.348 -2.6399  2.8209 -1.9871
  271EMI    C1" 5143   1.803   3.198   1.706 -0.2832  0.2402 -0.0879
  271EMI    H1" 5144   1.716   3.260   1.673 -0.1250 -0.9907  0.8916
  271EMI    H1" 5145   1.876   3.255   1.761 -0.9711 -1.2498 -0.6832
  271EMI    C2" 5146   1.753   3.103   1.807 -0.5009  0.1517 -0.1608
  271EMI    H2" 5147   1.844   3.067   1.861  1.1556 -0.8711  0.6032
  271EMI    H2" 5148   1.698   3.153   1.891 -0.2741  1.3826 -1.9020
  271EMI    H2" 5149   1.699   3.024   1.757 -0.2375 -0.8430 -0.6056
  272EMI     N1 5150   0.103   5.306   1.780  0.4862  0.0787 -0.2204
  272EMI     C2 5151   0.114   5.172   1.779  0.2308 -0.0808  0.3412
  272EMI     N3 5152  -0.005   5.113   1.776  0.3837  0.3989 -0.0694
  272EMI     C4 5153  -0.100   5.214   1.777 -0.0957  0.4811  0.1768
  272EMI     C5 5154  -0.032   5.328   1.773  0.3266 -0.9378  0.9914
  272EMI     H2 5155   0.209   5.125   1.775 -1.3489  0.1574  0.1372
  272EMI     H4 5156  -0.203   5.210   1.777  2.5338  0.2422 -0.0463
  272EMI     H5 5157  -0.069   5.431   1.765  2.2438  0.2759 -1.4776
  272EMI    C1' 5158  -0.042   4.969   1.770  0.4045 -0.2279  0.3673
  272EMI    H1' 5159  -0.114   4.958   1.855 -1.4461 -1.7773  0.4906
  272EMI    H1' 5160  -0.093   4.952   1.673  0.9692 -0.1606 -0.2473
  272EMI    H1' 5161   0.042   4.901   1.788  2.1521  2.1039 -1.0314
  272EMI    C1" 5162   0.204   5.410   1.771 -0.5228 -0.0680  0.4549
  272EMI    H1" 5163   0.202   5.468   1.861 -1.4901 -4.2389  0.9287
  272EMI    H1" 5164   0.175   5.478   1.687  0.2236 -0.1302  2.1045
  272EMI    C2" 5165   0.347   5.362   1.753 -0.2094 -0.1095  0.0904
  272EMI    H2" 5166   0.351   5.267   1.712 -5.5047 -1.0383  3.7006
  272EMI    H2" 5167   0.405   5.445   1.709 -0.2672 -0.6809 -0.7687
  272EMI    H2" 5168   0.377   5.346   1.849  0.6095 -1.2735 -2.3892
  273EMI     N1 5169   2.365   4.368   2.487 -0.1838  0.2918  0.3478
  273EMI     C2 5170   2.377   4.317   2.364 -0.7697 -0.3212 -0.6049
  273EMI     N3 5171   2.505   4.316   2.324  0.0090 -0.3102  0.8244
  273EMI     C4 5172   2.583   4.353   2.430 -0.5396  0.4335  0.6666
  273EMI     C5 5173   2.494   4.391   2.532 -0.5293  0.0878  0.5840
  273EMI     H2 5174   2.290   4.294   2.305  0.3852 -0.8665  0.9033
  273EMI     H4 5175   2.687   4.356   2.432  0.9720 -2.3234  0.9979
  273EMI     H5 5176   2.526   4.432   2.630  2.0811 -1.3323 -1.3716
  273EMI    C1' 5177   2.568   4.264   2.199  0.4802  0.3142 -0.0358
  273EMI    H1' 5178   2.605   4.159   2.228  0.8019 -0.6483 -0.2460
  273EMI    H1' 5179   2.490   4.265   2.118 -0.6289  1.7634  1.1550
  273EMI    H1' 5180   2.649   4.332   2.170 -0.9756 -0.1213 -0.8867
  273EMI    C1" 5181   2.252   4.393   2.567 -0.2634 -0.0843  0.0503
  273EMI    H1" 5182   2.168   4.414   2.499 -0.9537 -2.3593 -0.2307
  273EMI    H1" 5183   2.263   4.481   2.630 -0.2863 -2.8361 -0.7471
  273EMI    C2" 5184   2.217   4.275   2.665 -0.7825  0.1515  0.2970
  273EMI    H2" 5185   2.298   4.269   2.735 -0.1584  1.5010 -0.2565
  273EMI    H2" 5186   2.121   4.299   2.702  1.9937 -1.6796 -0.3503
  273EMI    H2" 5187   2.199   4.186   2.604 -3.2178  0.6077 -1.0873
  274EMI     N1 5188   0.650   2.593   5.982  0.0129  0.0572 -0.1913
  274EMI     C2 5189   0.671   2.689   6.075 -0.4226 -0.7352 -0.0013
  274EMI     N3 5190   0.564   2.700   6.150 -0.3443  0.7759 -0.7202
  274EMI     C4 5191   0.470   2.600   6.114  0.1036 -0.3209  0.4839
  274EMI     C5 5192   0.524   2.538   6.003  0.6915  0.1770 -0.8997
  274EMI     H2 5193   0.760   2.747   6.080 -0.3502 -0.0396 -0.3230
  274EMI     H4 5194   0.373   2.580   6.164 -0.2015  0.3460  2.3179
  274EMI     H5 5195   0.473   2.459   5.945 -0.8189 -0.2552 -0.2684
  274EMI    C1' 5196   0.548   2.794   6.256 -0.2102  0.3913  0.1817
  274EMI    H1' 5197   0.627   2.867   6.239 -0.9954  0.5826 -1.8726
  274EMI    H1' 5198   0.448   2.839   6.259 -0.8243 -0.9781 -2.9459
  274EMI    H1' 5199   0.569   2.745   6.348 -2.0158 -0.0845 -1.2071
  274EMI    C1" 5200   0.726   2.536   5.869 -0.1702 -0.5633  0.0286
  274EMI    H1" 5201   0.756   2.621   5.805 -0.9991 -1.8577 -0.1065
  274EMI    H1" 5202   0.664   2.468   5.812 -2.5112 -2.3058 -1.2435
  274EMI    C2" 5203   0.855   2.461   5.909  0.7289  0.0949  0.3519
  274EMI    H2" 5204   0.920   2.532   5.953  0.2918 -2.7512  1.8419
  274EMI    H2" 5205   0.834   2.389   5.985 -2.3252 -1.8862  2.3649
  274EMI    H2" 5206   0.892   2.410   5.819 -2.3099 -0.4540 -1.2916
  275EMI     N1 5207   5.201   6.524   4.958  0.5682 -0.1071  0.0249
  275EMI     C2 5208   5.213   6.587   4.841 -0.0365 -0.5243  0.9547
  275EMI     N3 5209   5.099   6.589   4.778  0.2106 -0.1386  0.1398
  275EMI     C4 5210   5.011   6.507   4.846  0.6251 -0.0545  0.2460
  275EMI     C5 5211   5.073   6.473   4.962  0.0354 -0.1640 -0.3615
  275EMI     H2 5212   5.292   6.643   4.812  0.4042  3.2153 -0.0993
  275EMI     H4 5213   4.910   6.491   4.819  2.9265  0.3715 -1.2498
  275EMI     H5 5214   5.029   6.422   5.051  0.4124 -1.3356  0.3665
  275EMI    C1' 5215   5.053   6.673   4.655 -0.0485 -1.1121  0.0579
  275EMI    H1' 5216   4.948   6.652   4.628 -0.5791 -1.4182 -1.3221
  275EMI    H1' 5217   5.059   6.780   4.674  2.1056 -1.5476 -0.7222
  275EMI    H1' 5218   5.112   6.655   4.566 -1.5319  1.2926  0.0419
  275EMI    C1" 5219   5.297   6.499   5.067  0.4440  0.0128  1.1200
  275EMI    H1" 5220   5.300   6.595   5.113 -0.7245  0.5228  0.7151
  275EMI    H1" 5221   5.390   6.468   5.017 -3.2861 -0.1708  1.0282
  275EMI    C2" 5222   5.245   6.401   5.175  0.2636  0.0123 -0.0804
  275EMI    H2" 5223   5.233   6.295   5.129 -0.4176 -3.4822 -0.2175
  275EMI    H2" 5224   5.314   6.403   5.267 -0.2292 -2.1276  1.3602
  275EMI    H2" 5225   5.153   6.433   5.211  0.2935 -3.4944 -1.4805
  276EMI     N1 5226   0.972   0.642   1.778  0.5624  0.5035  0.1811
  276EMI     C2 5227   1.100   0.620   1.818 -0.3272 -1.0952  0.3991
  276EMI     N3 5228   1.125   0.490   1.841  0.3303  0.5530  0.2366
  276EMI     C4 5229   1.004   0.426   1.812  0.3232 -0.1073 -0.5263
  276EMI     C5 5230   0.914   0.520   1.776  0.2235 -0.1327 -0.0944
  276EMI     H2 5231   1.180   0.698   1.835  1.4855 -1.5897 -2.1943
  276EMI     H4 5232   0.979   0.321   1.817  0.4309  0.9152  4.0190
  276EMI     H5 5233   0.814   0.501   1.748  0.1278  2.8198  1.4345
  276EMI    C1' 5234   1.245   0.429   1.901 -0.3568 -0.3066 -0.2360
  276EMI    H1' 5235   1.317   0.413   1.822 -0.3594  1.0123 -1.2254
  276EMI    H1' 5236   1.280   0.504   1.971  2.9331 -0.0241  0.7412
  276EMI    H1' 5237   1.225   0.341   1.963 -2.0723 -1.2459 -0.2750
  276EMI    C1" 5238   0.888   0.764   1.749 -0.3457 -0.2982 -0.2131
  276EMI    H1" 5239   0.942   0.853   1.781  0.7819 -0.5061  0.1152
  276EMI    H1" 5240   0.789   0.747   1.789 -1.6040 -1.6059  1.4785
  276EMI    C2" 5241   0.874   0.796   1.592 -0.5784  0.1240 -0.4744
  276EMI    H2" 5242   0.778   0.858   1.570  0.0126  0.7158 -0.5854
  276EMI    H2" 5243   0.967   0.847   1.562 -1.9084 -2.4140  2.4433
  276EMI    H2" 5244   0.858   0.703   1.531 -1.3211 -0.3402 -0.5407
  277EMI     N1 5245   3.169   6.112   2.877  0.6520 -0.1181 -0.5551
  277EMI     C2 5246   3.252   6.188   2.945  0.6922  0.8027 -0.3466
  277EMI     N3 5247   3.223   6.191   3.076 -0.2260  0.1204 -0.0615
  277EMI     C4 5248   3.110   6.114   3.091  0.4014  0.3542 -0.3149
  277EMI     C5 5249   3.073   6.071   2.964  0.3548 -0.6620  0.1708
  277EMI     H2 5250   3.341   6.235   2.899  0.9022 -0.9301  1.3065
  277EMI     H4 5251   3.058   6.094   3.185 -3.7287  2.2059 -2.7099
  277EMI     H5 5252   2.987   6.013   2.922  1.2632 -1.7527 -2.4557
  277EMI    C1' 5253   3.286   6.270   3.184  0.0491 -0.5967 -0.2607
  277EMI    H1' 5254   3.212   6.331   3.241 -1.5457 -0.9555 -0.2830
  277EMI    H1' 5255   3.336   6.212   3.266 -0.1554  1.2226 -1.1194
  277EMI    H1' 5256   3.365   6.340   3.140 -0.3008 -3.1615  0.3711
  277EMI    C1" 5257   3.166   6.069   2.736 -0.4404  0.2465  0.4385
  277EMI    H1" 5258   3.249   6.125   2.695  0.6013  0.7999 -0.9311
  277EMI    H1" 5259   3.077   6.105   2.683  1.0029 -0.0306 -1.6672
  277EMI    C2" 5260   3.186   5.914   2.720  0.1090 -0.2287  0.5523
  277EMI    H2" 5261   3.112   5.860   2.770  1.2577 -0.4984  1.5077
  277EMI    H2" 5262   3.181   5.879   2.616 -0.7521 -0.6116 -1.9864
  277EMI    H2" 5263   3.275   5.879   2.769  0.0133 -0.8901 -1.2624
  278EMI     N1 5264   5.463   1.507   1.163 -0.5322 -0.0915 -0.2355
  278EMI     C2 5265   5.364   1.435   1.212 -0.4886 -0.8296 -0.1799
  278EMI     N3 5266   5.250   1.494   1.179  0.1142 -0.3919 -0.5475
  278EMI     C4 5267   5.285   1.596   1.095  0.0369  0.4210  0.6832
  278EMI     C5 5268   5.417   1.600   1.077  0.0978  0.9881 -0.2638
  278EMI     H2 5269   5.365   1.364   1.297 -1.6252  1.2387  0.8725
  278EMI     H4 5270   5.208   1.664   1.058 -1.0999  1.5993 -0.1788
  278EMI     H5 5271   5.476   1.668   1.024 -0.0633 -1.8588 -0.6381
  278EMI    C1' 5272   5.115   1.467   1.219  0.1384  0.1116  0.3781
  278EMI    H1' 5273   5.076   1.375   1.172 -3.1617 -1.5281 -0.2206
  278EMI    H1' 5274   5.102   1.474   1.327 -0.5180 -0.6332  0.4923
  278EMI    H1' 5275   5.054   1.548   1.185  0.5534  0.5457  1.6868
  278EMI    C1" 5276   5.612   1.491   1.183 -0.1392  0.0489  0.2932
  278EMI    H1" 5277   5.658   1.584   1.215  0.1962 -2.2655  0.9458
  278EMI    H1" 5278   5.663   1.457   1.087 -0.7573 -0.8622 -1.3239
  278EMI    C2" 5279   5.649   1.390   1.295  0.4294 -0.3805 -0.5266
  278EMI    H2" 5280   5.587   1.300   1.287 -0.8373 -2.4369 -1.3546
  278EMI    H2" 5281   5.749   1.358   1.283 -0.9065 -1.6898  0.5660
  278EMI    H2" 5282   5.635   1.438   1.395 -2.1659 -1.7629  0.8826
  279EMI     N1 5283   5.775   1.236   5.600  0.0924  0.3672  0.0740
  279EMI     C2 5284   5.642   1.216   5.581 -0.6101  0.5197 -0.1583
  279EMI     N3 5285   5.573   1.304   5.658  0.0555 -1.0606  0.4029
  279EMI     C4 5286   5.662   1.399   5.707  0.4715 -0.7947  0.5690
  279EMI     C5 5287   5.790   1.356   5.670  0.3132  0.0513 -0.6998
  279EMI     H2 5288   5.594   1.141   5.524  3.0079 -0.3056  2.5184
  279EMI     H4 5289   5.633   1.484   5.770 -1.8925 -1.7635  4.0466
  279EMI     H5 5290   5.879   1.404   5.682  1.1907 -3.6582 -3.0800
  279EMI    C1' 5291   5.432   1.306   5.686  0.5757 -0.0169  0.0275
  279EMI    H1' 5292   5.393   1.410   5.695 -2.2089  1.6431 -0.0512
  279EMI    H1' 5293   5.372   1.252   5.614 -1.4830  1.7002  1.3619
  279EMI    H1' 5294   5.417   1.259   5.783  0.2760  0.1437 -0.8622
  279EMI    C1" 5295   5.889   1.147   5.575 -0.5055 -0.2213  1.1409
  279EMI    H1" 5296   5.985   1.214   5.565  2.0340 -0.5097 -2.5017
  279EMI    H1" 5297   5.873   1.101   5.477  2.4469  2.2353  1.8343
  279EMI    C2" 5298   5.912   1.046   5.684  0.4921 -0.2024 -0.0913
  279EMI    H2" 5299   5.970   0.966   5.648 -0.0715  1.7697 -0.0106
  279EMI    H2" 5300   5.966   1.093   5.769 -0.9805 -3.2614 -0.1398
  279EMI    H2" 5301   5.822   0.999   5.713  0.1240 -1.1007  0.7922
  280EMI     N1 5302   2.767   3.868   4.166 -0.3767 -0.5849 -0.6732
  280EMI     C2 5303   2.813   3.988   4.193  0.5491 -0.5430 -0.2919
  280EMI     N3 5304   2.884   3.981   4.309 -0.2537  0.1111 -0.5133
  280EMI     C4 5305   2.868   3.854   4.363 -0.1586  0.1049 -0.0765
  280EMI     C5 5306   2.803   3.784   4.266  0.3159  0.2167  0.1479
  280EMI     H2 5307   2.808   4.077   4.132  3.8768  0.1012 -0.1732
  280EMI     H4 5308   2.914   3.823   4.453  0.1343  2.3738  0.1087
  280EMI     H5 5309   2.776   3.678   4.264  0.1277 -0.8517  2.2957
  280EMI    C1' 5310   2.929   4.088   4.395 -0.1511  0.2206 -1.0717
  280EMI    H1' 5311   2.919   4.184   4.348  1.7771  0.4772 -0.9725
  280EMI    H1' 5312   2.870   4.097   4.483  1.9473 -0.6996  1.4699
  280EMI    H1' 5313   3.027   4.061   4.439  1.3552 -1.9342  2.4253
  280EMI    C1" 5314   2.691   3.824   4.051  0.2988 -0.3893 -1.0884
  280EMI    H1" 5315   2.645   3.729   4.075  1.4070 -0.2557 -1.8558
  280EMI    H1" 5316   2.760   3.809   3.964  1.3408 -0.7842  2.6440
  280EMI    C2" 5317   2.591   3.935   4.028  0.1634 -0.1108  1.2621
  280EMI    H2" 5318   2.542   3.944   4.113 -2.6229 -0.1067 -1.2762
  280EMI    H2" 5319   2.638   4.028   3.996 -0.3512  1.9847  2.8593
  280EMI    H2" 5320   2.514   3.899   3.954 -0.4862 -0.3490  3.1182
  281EMI     N1 5321   5.530   6.429   4.082 -0.0580 -0.3765  0.0332
  281EMI     C2 5322   5.594   6.323   4.032 -0.5271 -0.0014 -0.5752
  281EMI     N3 5323   5.591   6.226   4.125 -0.7994  0.2938 -0.1187
  281EMI     C4 5324   5.534   6.277   4.240 -0.3859  0.2948 -0.4926
  281EMI     C5 5325   5.502   6.403   4.218  0.3181  0.2552  0.2016
  281EMI     H2 5326   5.651   6.305   3.938  1.1717  1.0323 -1.4425
  281EMI     H4 5327   5.535   6.226   4.331  0.4660  0.3406  0.4005
  281EMI     H5 5328   5.461   6.478   4.291 -1.0556  1.2899  1.1072
  281EMI    C1' 5329   5.657   6.095   4.113 -0.1790 -0.0887 -0.5733
  281EMI    H1' 5330   5.756   6.125   4.088 -2.4724 -1.8982  2.6299
  281EMI    H1' 5331   5.659   6.042   4.206  1.1923 -0.0503 -2.5572
  281EMI    H1' 5332   5.603   6.029   4.047 -3.1359 -1.9729 -0.2477
  281EMI    C1" 5333   5.489   6.558   4.022  0.3357  0.3032 -0.3666
  281EMI    H1" 5334   5.387   6.570   4.049  0.7866 -2.8104 -0.9148
  281EMI    H1" 5335   5.514   6.545   3.914  0.8823 -1.2349 -2.3605
  281EMI    C2" 5336   5.574   6.665   4.079  1.0289  0.1843 -0.0640
  281EMI    H2" 5337   5.575   6.672   4.186 -0.6172  0.0105  0.1454
  281EMI    H2" 5338   5.675   6.651   4.048 -0.2589  2.5042  0.0378
  281EMI    H2" 5339   5.526   6.760   4.045 -1.0846  0.0269  1.1216
  282EMI     N1 5340   0.323   5.545   4.921  0.0774 -0.0021  0.2253
  282EMI     C2 5341   0.195   5.573   4.925  0.5979  1.0522 -0.1263
  282EMI     N3 5342   0.171   5.669   5.012  0.2924  0.3419  0.0910
  282EMI     C4 5343   0.291   5.704   5.074 -0.3118 -0.1941 -0.1424
  282EMI     C5 5344   0.385   5.626   5.018 -0.2783  0.3922  0.4589
  282EMI     H2 5345   0.123   5.527   4.862 -0.2231 -0.9567 -0.3916
  282EMI     H4 5346   0.303   5.776   5.154 -1.9345  1.4402 -0.8395
  282EMI     H5 5347   0.494   5.613   5.039 -0.4010 -0.8289  1.5665
  282EMI    C1' 5348   0.061   5.752   5.022 -0.0519  0.0695  0.9199
  282EMI    H1' 5349   0.005   5.718   5.106  0.1300 -0.6607  1.3443
  282EMI    H1' 5350   0.110   5.847   5.042 -2.1120 -0.8742 -1.5727
  282EMI    H1' 5351   0.017   5.752   4.921 -1.9138  2.4602 -1.1965
  282EMI    C1" 5352   0.395   5.445   4.838  0.4565  0.3055 -0.1338
  282EMI    H1" 5353   0.373   5.467   4.732  0.8475  1.6386 -0.5815
  282EMI    H1" 5354   0.349   5.347   4.866  1.2859 -0.0059  1.9619
  282EMI    C2" 5355   0.548   5.446   4.855  0.2173  0.5136 -0.1405
  282EMI    H2" 5356   0.587   5.376   4.783 -0.2214  3.1391  0.9470
  282EMI    H2" 5357   0.585   5.541   4.833 -5.5849  1.3395  1.4953
  282EMI    H2" 5358   0.576   5.430   4.958 -0.8035 -1.9121  0.5186
  283EMI     N1 5359   4.329   4.741   1.060  0.3176 -0.0908 -0.4012
  283EMI     C2 5360   4.370   4.677   1.170  0.3201  0.4875  0.2617
  283EMI     N3 5361   4.405   4.770   1.263  0.4981  0.1183  0.3567
  283EMI     C4 5362   4.384   4.894   1.213 -0.1007 -0.3691  0.6705
  283EMI     C5 5363   4.328   4.872   1.093  0.7607  0.6113  0.3744
  283EMI     H2 5364   4.369   4.569   1.189 -2.3102 -0.0761  0.9470
  283EMI     H4 5365   4.404   4.982   1.271 -0.6941 -1.5375  1.1173
  283EMI     H5 5366   4.297   4.954   1.036 -1.4472 -1.2280 -0.7790
  283EMI    C1' 5367   4.453   4.758   1.405  1.1319 -0.8043  0.2658
  283EMI    H1' 5368   4.399   4.824   1.471 -0.0147 -0.1213  1.0014
  283EMI    H1' 5369   4.435   4.654   1.435 -1.8234 -1.6717 -0.2839
  283EMI    H1' 5370   4.556   4.777   1.409 -1.1331  0.4892  0.7815
  283EMI    C1" 5371   4.279   4.694   0.931  0.8835  0.0271 -0.0100
  283EMI    H1" 5372   4.323   4.597   0.888  0.6515 -0.4315 -2.4119
  283EMI    H1" 5373   4.288   4.777   0.859  2.1453  1.6788 -0.8538
  283EMI    C2" 5374   4.125   4.678   0.943  0.1247  0.2301  0.0679
  283EMI    H2" 5375   4.095   4.611   1.022 -2.0066 -4.2702  0.0030
  283EMI    H2" 5376   4.085   4.775   0.961 -0.9079 -0.4561 -2.4372
  283EMI    H2" 5377   4.087   4.639   0.846 -1.4985  0.9411 -1.0173
  284EMI     N1 5378   3.341   1.808   5.312 -0.1161  0.3517 -0.5423
  284EMI     C2 5379   3.235   1.770   5.239 -0.4492 -0.0250  0.3833
  284EMI     N3 5380   3.133   1.744   5.323  0.5225 -0.2045  0.5623
  284EMI     C4 5381   3.176   1.770   5.450  0.1180 -0.1267 -0.4150
  284EMI     C5 5382   3.305   1.797   5.448 -1.5985 -0.6484 -0.2827
  284EMI     H2 5383   3.237   1.753   5.129  0.4045 -0.9415  0.8348
  284EMI     H4 5384   3.112   1.754   5.537  0.9405 -3.4477 -0.4568
  284EMI     H5 5385   3.371   1.808   5.539  0.0347 -0.5811  2.3886
  284EMI    C1' 5386   2.999   1.696   5.296  0.0054 -0.2879 -0.2150
  284EMI    H1' 5387   2.971   1.629   5.375 -0.2737  1.9769 -0.8372
  284EMI    H1' 5388   2.931   1.782   5.300 -3.0882 -0.5871  3.3366
  284EMI    H1' 5389   2.992   1.643   5.204  0.3007  0.2874  1.6843
  284EMI    C1" 5390   3.485   1.844   5.276  0.2663  0.6790  0.0704
  284EMI    H1" 5391   3.531   1.778   5.196  2.3028  0.7449  0.5052
  284EMI    H1" 5392   3.545   1.830   5.366 -0.3142  0.6145  1.8413
  284EMI    C2" 5393   3.507   1.989   5.240  0.4090 -0.6864 -0.1556
  284EMI    H2" 5394   3.425   2.025   5.185 -1.5692 -0.1990 -1.4306
  284EMI    H2" 5395   3.515   2.040   5.332  1.5333 -0.5478 -2.9423
  284EMI    H2" 5396   3.602   1.995   5.176  1.0303  1.2464 -0.8242
  285EMI     N1 5397   4.206   0.586   5.468 -0.6015  0.0485 -0.8573
  285EMI     C2 5398   4.204   0.460   5.424  0.1846  0.0070 -1.0467
  285EMI     N3 5399   4.298   0.390   5.485 -0.2922  0.6056  0.2414
  285EMI     C4 5400   4.367   0.479   5.571 -0.1056 -0.0308 -0.2139
  285EMI     C5 5401   4.310   0.601   5.553 -0.3178 -0.2674  0.2146
  285EMI     H2 5402   4.145   0.431   5.341  1.6713  1.5966  1.8847
  285EMI     H4 5403   4.448   0.445   5.637 -1.4230  0.9313  2.7753
  285EMI     H5 5404   4.330   0.694   5.600  0.1976  1.8441  1.1064
  285EMI    C1' 5405   4.343   0.246   5.472 -0.5920  0.8050  0.6070
  285EMI    H1' 5406   4.292   0.170   5.530  0.0097  0.0195  0.9517
  285EMI    H1' 5407   4.329   0.222   5.365  1.6385  1.1600 -1.1815
  285EMI    H1' 5408   4.452   0.239   5.495  0.0528 -0.1863  0.3113
  285EMI    C1" 5409   4.115   0.699   5.433  0.1338  0.1952  0.7695
  285EMI    H1" 5410   4.105   0.693   5.323 -0.2705  1.0188  1.3211
  285EMI    H1" 5411   4.149   0.792   5.469 -0.7405 -0.5276 -0.9735
  285EMI    C2" 5412   3.987   0.657   5.508  0.0316 -0.5818 -0.0605
  285EMI    H2" 5413   3.914   0.732   5.479 -0.5487 -0.4492 -0.7980
  285EMI    H2" 5414   3.957   0.551   5.477 -3.1026 -3.1792  3.0020
  285EMI    H2" 5415   4.000   0.655   5.615 -1.3416  0.9847 -0.7213
  286EMI     N1 5416   5.694   0.179   1.153  0.2035  0.0624 -0.1901
  286EMI     C2 5417   5.615   0.284   1.141 -0.6072 -0.6137  0.0968
  286EMI     N3 5418   5.545   0.305   1.253 -0.1666  0.2113 -0.4750
  286EMI     C4 5419   5.586   0.205   1.338 -1.0623 -0.0905  0.1381
  286EMI     C5 5420   5.682   0.131   1.278 -0.0256  0.4540  0.0892
  286EMI     H2 5421   5.615   0.352   1.049 -0.5529 -0.1211 -2.5946
  286EMI     H4 5422   5.541   0.201   1.432 -2.2126 -0.9345 -0.7897
  286EMI     H5 5423   5.729   0.048   1.324 -1.2201  2.8924 -2.7284
  286EMI    C1' 5424   5.452   0.419   1.284  0.3556  0.3639 -0.6383
  286EMI    H1' 5425   5.367   0.418   1.224  0.9155  1.5576  0.5017
  286EMI    H1' 5426   5.415   0.423   1.380  1.2999  0.1834 -0.1010
  286EMI    H1' 5427   5.492   0.516   1.278 -0.9242 -1.6667  0.0925
  286EMI    C1" 5428   5.764   0.114   1.044  1.0202  0.3347  0.5368
  286EMI    H1" 5429   5.866   0.090   1.075 -0.1383  4.6757  2.6938
  286EMI    H1" 5430   5.759   0.181   0.955 -0.3579  3.2093  1.7191
  286EMI    C2" 5431   5.706  -0.022   0.997 -0.1727 -0.0406 -0.3966
  286EMI    H2" 5432   5.773  -0.079   0.933 -1.1628 -0.8605 -1.6613
  286EMI    H2" 5433   5.675  -0.076   1.089  1.9368 -1.9266 -1.1810
  286EMI    H2" 5434   5.621  -0.001   0.938  1.1958  0.7161  0.7158
  287EMI     N1 5435   5.430   4.565   4.208  0.1677 -0.3080 -0.4277
  287EMI     C2 5436   5.507   4.526   4.108 -0.5413  0.2782  0.2926
  287EMI     N3 5437   5.447   4.428   4.031 -0.7328 -0.7838  0.1308
  287EMI     C4 5438   5.324   4.399   4.089 -0.6127 -0.2471 -0.5478
  287EMI     C5 5439   5.317   4.482   4.199  0.2714  0.1066  0.3727
  287EMI     H2 5440   5.603   4.573   4.084  3.7942 -0.4463 -0.0699
  287EMI     H4 5441   5.252   4.321   4.062  0.8643 -0.9701  0.5608
  287EMI     H5 5442   5.232   4.477   4.270 -0.0208  0.1484 -1.8456
  287EMI    C1' 5443   5.496   4.381   3.900 -0.4311 -0.1847  0.5927
  287EMI    H1' 5444   5.590   4.424   3.879  3.8696 -0.8115  0.1700
  287EMI    H1' 5445   5.507   4.272   3.908 -0.1283 -2.0552  1.9757
  287EMI    H1' 5446   5.425   4.407   3.818 -0.8450 -1.9328 -1.9064
  287EMI    C1" 5447   5.436   4.674   4.302 -0.8291  0.0351  0.5195
  287EMI    H1" 5448   5.354   4.693   4.367  0.8354 -0.1989 -1.1228
  287EMI    H1" 5449   5.476   4.765   4.254  2.9024  3.5355 -1.4892
  287EMI    C2" 5450   5.552   4.624   4.397 -1.0222  0.3502 -0.4994
  287EMI    H2" 5451   5.648   4.622   4.348 -0.6564  1.1903  1.0858
  287EMI    H2" 5452   5.555   4.706   4.479  0.6960  2.5484 -1.3439
  287EMI    H2" 5453   5.530   4.532   4.450  0.5985  3.4588  1.5689
  288EMI     N1 5454   0.059   1.071   0.892  0.7169 -0.1652  0.1066
  288EMI     C2 5455  -0.003   1.169   0.958 -0.3957  0.0533 -0.0942
  288EMI     N3 5456   0.066   1.280   0.938 -0.0767 -0.3007 -0.5167
  288EMI     C4 5457   0.181   1.257   0.865  0.4701 -0.4538 -0.1912
  288EMI     C5 5458   0.175   1.130   0.834 -0.2592 -0.2589  0.5640
  288EMI     H2 5459  -0.102   1.163   1.013 -1.0074 -0.2288  0.9915
  288EMI     H4 5460   0.253   1.329   0.848 -3.3032  0.1634  0.4982
  288EMI     H5 5461   0.247   1.069   0.773  0.0815  1.7564 -0.9547
  288EMI    C1' 5462   0.040   1.418   0.982  0.5697  1.0203  0.6122
  288EMI    H1' 5463   0.093   1.441   1.072  4.2670  1.5273 -0.1997
  288EMI    H1' 5464   0.077   1.480   0.902 -3.8646 -1.8280  1.4738
  288EMI    H1' 5465  -0.071   1.432   0.992 -0.7173  1.2027 -2.8063
  288EMI    C1" 5466   0.023   0.928   0.874 -0.0520  0.4166 -0.1628
  288EMI    H1" 5467   0.121   0.878   0.888  0.6677  1.0356  1.0883
  288EMI    H1" 5468  -0.008   0.914   0.771  0.9655 -0.0872  1.0501
  288EMI    C2" 5469  -0.079   0.893   0.980  0.5442 -0.3855 -0.6223
  288EMI    H2" 5470  -0.030   0.893   1.087  0.8434  1.7046  0.1813
  288EMI    H2" 5471  -0.167   0.958   0.973  0.4179 -0.1912  2.3876
  288EMI    H2" 5472  -0.114   0.796   0.962 -0.9562 -0.2584 -0.9228
  289EMI     N1 5473   5.247   5.998   5.156  0.1080  0.0632 -0.1923
  289EMI     C2 5474   5.272   5.912   5.053  0.2555 -0.6287  0.6936
  289EMI     N3 5475   5.173   5.920   4.957  0.8487 -0.0079  0.7753
  289EMI     C4 5476   5.085   6.019   4.995 -0.2548  0.1724 -0.3532
  289EMI     C5 5477   5.131   6.062   5.118  0.5421 -0.0252  0.0423
  289EMI     H2 5478   5.352   5.847   5.042  0.6064 -0.2694  0.4775
  289EMI     H4 5479   5.002   6.050   4.939  2.2216 -2.1378  2.3566
  289EMI     H5 5480   5.076   6.144   5.165  0.0451 -2.3360 -1.4989
  289EMI    C1' 5481   5.140   5.847   4.834 -0.6940  0.6427  0.1959
  289EMI    H1' 5482   5.041   5.812   4.838  0.1701  0.2015  0.2205
  289EMI    H1' 5483   5.138   5.919   4.758  2.2416 -1.8651 -2.4648
  289EMI    H1' 5484   5.217   5.764   4.813  1.0280 -0.4274 -0.2576
  289EMI    C1" 5485   5.327   6.018   5.282 -0.1205 -0.4707 -0.1048
  289EMI    H1" 5486   5.417   6.070   5.270  0.2441 -1.6284  4.0896
  289EMI    H1" 5487   5.344   5.916   5.327  1.9382  0.4037  1.6384
  289EMI    C2" 5488   5.254   6.105   5.381  0.5242  0.4063 -0.3869
  289EMI    H2" 5489   5.320   6.114   5.470  1.4922  1.8124  0.8201
  289EMI    H2" 5490   5.237   6.208   5.352 -1.2891 -0.4468 -0.5242
  289EMI    H2" 5491   5.161   6.054   5.413  0.9808  1.6708  1.3609
  290EMI     N1 5492   2.725   3.178   1.924  0.1969  0.1940  0.1458
  290EMI     C2 5493   2.593   3.205   1.940  0.3368 -0.2193  0.2697
  290EMI     N3 5494   2.576   3.267   2.064  0.2860  0.5105 -0.3324
  290EMI     C4 5495   2.701   3.270   2.125 -0.0242 -0.0068 -0.0023
  290EMI     C5 5496   2.791   3.214   2.041 -0.7941  0.4263 -0.0725
  290EMI     H2 5497   2.510   3.189   1.877  0.9153  2.9404  0.3143
  290EMI     H4 5498   2.727   3.306   2.222 -0.6237 -0.1800 -1.0915
  290EMI     H5 5499   2.899   3.212   2.055  1.3378  0.0739  0.3655
  290EMI    C1' 5500   2.454   3.317   2.126 -0.4110  0.3123 -0.2954
  290EMI    H1' 5501   2.434   3.421   2.103  2.7215 -0.9722  1.3383
  290EMI    H1' 5502   2.372   3.255   2.077  0.0328 -0.8712  0.3582
  290EMI    H1' 5503   2.465   3.300   2.233 -0.5975 -0.8573  0.7576
  290EMI    C1" 5504   2.808   3.141   1.808  0.0091  0.2086 -0.1167
  290EMI    H1" 5505   2.797   3.032   1.792  1.4624 -3.1824 -2.3956
  290EMI    H1" 5506   2.915   3.155   1.825 -1.8128  0.8088  1.3229
  290EMI    C2" 5507   2.752   3.223   1.690  0.3813  0.6464 -0.4726
  290EMI    H2" 5508   2.736   3.327   1.704  0.4410  0.8089  0.3130
  290EMI    H2" 5509   2.804   3.199   1.599 -1.5582  0.9552  0.9126
  290EMI    H2" 5510   2.655   3.185   1.679 -0.0559 -0.2348  0.7626
  291EMI     N1 5511   6.015   2.357   6.419  0.4119 -0.0581 -0.3574
  291EMI     C2 5512   6.115   2.409   6.494 -0.0111  0.3944  0.2611
  291EMI     N3 5513   6.122   2.543   6.472 -0.0258 -0.3379 -0.0495
  291EMI     C4 5514   6.023   2.574   6.387  0.6811  0.0834  0.7380
  291EMI     C5 5515   5.959   2.458   6.348 -0.1959  0.6484  0.4407
  291EMI     H2 5516   6.190   2.352   6.558  2.4037 -1.2888  1.9843
  291EMI     H4 5517   6.007   2.678   6.349  0.4894  3.7394  0.1000
  291EMI     H5 5518   5.872   2.459   6.286 -0.4187 -1.7067 -2.6843
  291EMI    C1' 5519   6.197   2.651   6.535 -0.6303  0.0016 -0.5365
  291EMI    H1' 5520   6.136   2.743   6.555 -0.0464 -1.2564  1.2405
  291EMI    H1' 5521   6.237   2.629   6.637  0.6079 -1.1522  2.3813
  291EMI    H1' 5522   6.277   2.683   6.468  0.8816 -0.9362  0.5574
  291EMI    C1" 5523   5.949   2.224   6.413  0.7435  0.0759  0.2723
  291EMI    H1" 5524   6.010   2.153   6.370 -2.9074  0.4388  0.4583
  291EMI    H1" 5525   5.853   2.233   6.359 -2.2778 -0.0097  0.9137
  291EMI    C2" 5526   5.908   2.161   6.544 -0.2617 -0.0073 -0.3325
  291EMI    H2" 5527   5.991   2.104   6.576 -1.0723  0.4333  0.4415
  291EMI    H2" 5528   5.888   2.234   6.620 -1.3678 -3.0890 -0.5967
  291EMI    H2" 5529   5.828   2.094   6.528  2.1471 -0.2763 -3.0883
  292EMI     N1 5530   0.301   1.289   2.587 -0.1807  0.1410 -0.1309
  292EMI     C2 5531   0.232   1.173   2.568 -0.6382 -0.1404  0.0529
  292EMI     N3 5532   0.239   1.140   2.438  0.7200 -0.0675  0.3458
  292EMI     C4 5533   0.319   1.233   2.376 -0.2668  0.3930 -0.0364
  292EMI     C5 5534   0.357   1.326   2.467 -0.1052  0.3542  0.3874
  292EMI     H2 5535   0.190   1.112   2.640 -0.2588 -0.1386  0.3447
  292EMI     H4 5536   0.334   1.246   2.270  0.3928  1.7466 -1.5351
  292EMI     H5 5537   0.415   1.412   2.446  1.3526 -2.2812 -1.0367
  292EMI    C1' 5538   0.167   1.039   2.364  0.2678  0.6916  0.2490
  292EMI    H1' 5539   0.238   0.986   2.294  0.1168 -1.3396 -0.6386
  292EMI    H1' 5540   0.120   0.963   2.421 -0.6645 -1.2061  0.6867
  292EMI    H1' 5541   0.097   1.082   2.291 -1.4481 -0.6987 -2.0110
  292EMI    C1" 5542   0.308   1.372   2.700  0.7048 -0.2322 -0.5616
  292EMI    H1" 5543   0.369   1.463   2.681 -0.5595  1.2434 -0.6820
  292EMI    H1" 5544   0.357   1.320   2.777  1.4664  3.8013 -2.6467
  292EMI    C2" 5545   0.170   1.425   2.732 -0.2330 -0.0169 -0.3874
  292EMI    H2" 5546   0.173   1.467   2.835 -0.5358 -0.9672  3.4363
  292EMI    H2" 5547   0.147   1.498   2.648 -1.7291  0.5860 -0.0034
  292EMI    H2" 5548   0.100   1.344   2.723  0.6720 -0.2697  0.5872
  293EMI     N1 5549   3.025   5.871   1.215  0.1686  0.0801 -0.0079
  293EMI     C2 5550   3.051   5.938   1.332 -0.1823 -0.2441  0.1401
  293EMI     N3 5551   3.169   5.902   1.384  0.6056 -0.5679 -0.4553
  293EMI     C4 5552   3.220   5.803   1.298 -0.2236 -0.9606  0.6587
  293EMI     C5 5553   3.132   5.781   1.196 -0.4277  0.4362  0.2541
  293EMI     H2 5554   2.985   6.016   1.362  2.0866  2.8231 -1.0501
  293EMI     H4 5555   3.312   5.747   1.306 -2.5332 -1.7477  2.6417
  293EMI     H5 5556   3.152   5.715   1.111 -1.0175  1.5698 -1.0804
  293EMI    C1' 5557   3.252   5.962   1.484  0.6209 -0.2756  1.0481
  293EMI    H1' 5558   3.350   5.961   1.432 -1.0281  2.1966 -1.0572
  293EMI    H1' 5559   3.203   6.059   1.505 -0.2134 -0.9972 -1.1309
  293EMI    H1' 5560   3.260   5.915   1.577  2.4625 -0.5481  0.8043
  293EMI    C1" 5561   2.903   5.877   1.129 -0.1255 -0.7112 -0.9083
  293EMI    H1" 5562   2.829   5.941   1.179 -3.2194  0.8163  1.3229
  293EMI    H1" 5563   2.857   5.779   1.117 -1.1808  0.9362  0.5342
  293EMI    C2" 5564   2.934   5.932   0.986  1.3662  0.2428  0.0847
  293EMI    H2" 5565   2.837   5.913   0.922 -3.8616 -0.2814 -1.4560
  293EMI    H2" 5566   2.959   6.038   0.984  1.1197 -1.8910  0.8502
  293EMI    H2" 5567   3.025   5.889   0.937  0.8916  2.1027  1.4963
  294EMI     N1 5568   1.746   6.513   5.059 -0.0186 -0.1495  0.4846
  294EMI     C2 5569   1.691   6.408   5.122 -0.0661 -0.2668 -0.1922
  294EMI     N3 5570   1.698   6.299   5.044 -0.1686 -0.1481  0.3725
  294EMI     C4 5571   1.763   6.336   4.928  0.1361  0.2476  0.5543
  294EMI     C5 5572   1.791   6.470   4.937  0.0033  0.3415 -0.1246
  294EMI     H2 5573   1.659   6.404   5.228 -1.6565  2.0690  0.8156
  294EMI     H4 5574   1.784   6.266   4.846 -0.3098 -0.1652 -0.3988
  294EMI     H5 5575   1.850   6.513   4.859 -1.1867 -1.8548 -0.4376
  294EMI    C1' 5576   1.667   6.157   5.075  0.0585  0.1749  0.0260
  294EMI    H1' 5577   1.663   6.103   4.978  2.4455  0.1448 -1.0459
  294EMI    H1' 5578   1.731   6.106   5.153 -0.0173 -2.4296  0.7373
  294EMI    H1' 5579   1.562   6.153   5.126 -0.1118 -0.7081  1.6632
  294EMI    C1" 5580   1.752   6.658   5.107  0.1814 -0.4067 -0.0922
  294EMI    H1" 5581   1.747   6.660   5.221 -1.6476 -1.0709 -1.2429
  294EMI    H1" 5582   1.667   6.706   5.065  1.1114 -1.6240 -0.2560
  294EMI    C2" 5583   1.871   6.745   5.069 -0.3839 -0.4934 -0.1676
  294EMI    H2" 5584   1.850   6.849   5.081  1.0591 -0.6703 -0.1359
  294EMI    H2" 5585   1.956   6.722   5.129 -0.3385  2.4070  1.7900
  294EMI    H2" 5586   1.910   6.719   4.972 -0.7386 -2.4964  2.2648
  295EMI     N1 5587   1.700   0.972   4.112  0.0416 -0.8809  0.1002
  295EMI     C2 5588   1.652   0.988   3.987 -0.4994  0.4056  0.2917
  295EMI     N3 5589   1.553   0.902   3.958 -0.4476 -0.5045  0.6326
  295EMI     C4 5590   1.542   0.824   4.073 -0.1653 -0.1267  0.9608
  295EMI     C5 5591   1.632   0.865   4.164  0.2588  0.4307 -0.0410
  295EMI     H2 5592   1.686   1.071   3.924  0.3165  0.4207  0.1066
  295EMI     H4 5593   1.472   0.740   4.067  0.4989  2.7850 -1.8926
  295EMI     H5 5594   1.653   0.817   4.267 -1.1921  0.0247  0.7067
  295EMI    C1' 5595   1.470   0.887   3.841 -0.3970  0.1207 -0.3133
  295EMI    H1' 5596   1.449   0.783   3.804  1.2305 -0.3408 -0.8135
  295EMI    H1' 5597   1.381   0.940   3.876  1.2788 -1.0390  1.3063
  295EMI    H1' 5598   1.515   0.945   3.758 -1.1943 -1.6478  2.3755
  295EMI    C1" 5599   1.810   1.052   4.183  0.1798  0.5044  0.0761
  295EMI    H1" 5600   1.807   1.039   4.293 -1.4794  3.8696 -1.6047
  295EMI    H1" 5601   1.813   1.161   4.168  2.0459 -0.5147 -1.8346
  295EMI    C2" 5602   1.949   1.023   4.127  0.1079 -0.1097  0.5416
  295EMI    H2" 5603   2.024   1.080   4.183 -0.8633 -0.3037 -1.0653
  295EMI    H2" 5604   1.968   0.922   4.143 -0.7144 -1.4300  0.6337
  295EMI    H2" 5605   1.953   1.055   4.023  1.0414 -1.2614 -1.2200
  296EMI     N1 5606   4.143   0.738   4.229 -0.1607  0.2957 -0.1779
  296EMI     C2 5607   4.122   0.763   4.096 -0.5883 -0.0576 -0.1364
  296EMI     N3 5608   4.232   0.802   4.031  0.1960  0.9891  0.1283
  296EMI     C4 5609   4.333   0.788   4.121  0.1395 -1.1317  0.3597
  296EMI     C5 5610   4.281   0.758   4.243 -0.0260  0.8481  0.0866
  296EMI     H2 5611   4.020   0.757   4.051 -0.2428 -1.5016  1.3521
  296EMI     H4 5612   4.433   0.815   4.091  2.8120 -0.1201 -3.2616
  296EMI     H5 5613   4.331   0.756   4.341 -0.5260 -0.6206  0.7874
  296EMI    C1' 5614   4.268   0.818   3.886  0.1427  0.5621  0.3698
  296EMI    H1' 5615   4.283   0.716   3.840  1.3792  0.2476  1.0614
  296EMI    H1' 5616   4.198   0.873   3.823  0.3891 -1.6761 -0.3722
  296EMI    H1' 5617   4.361   0.860   3.889 -1.0359 -2.8445 -2.8142
  296EMI    C1" 5618   4.056   0.696   4.343 -0.1729 -0.1767  0.3787
  296EMI    H1" 5619   4.134   0.656   4.410  1.2845  0.4477  1.3032
  296EMI    H1" 5620   4.004   0.610   4.313 -1.7258  2.4009  2.6043
  296EMI    C2" 5621   3.966   0.804   4.407 -0.1777  0.0375 -0.5099
  296EMI    H2" 5622   3.905   0.750   4.479  0.4558 -1.7161 -0.5735
  296EMI    H2" 5623   4.025   0.890   4.445  2.0840  3.1065  2.9608
  296EMI    H2" 5624   3.891   0.836   4.340  0.0886  1.4087  1.4420
  297EMI     N1 5625   6.122   1.971   4.653  0.5284  0.4620  0.2875
  297EMI     C2 5626   6.029   2.018   4.735  0.9302  0.1167 -0.5538
  297EMI     N3 5627   5.911   2.030   4.681 -0.3332  0.0373 -0.4026
  297EMI     C4 5628   5.925   1.996   4.555 -0.0821 -0.2888  0.5397
  297EMI     C5 5629   6.061   1.972   4.532 -0.3936  0.5963 -0.4805
  297EMI     H2 5630   6.061   2.057   4.837  1.9892  5.0597  1.1064
  297EMI     H4 5631   5.847   1.997   4.479 -1.2761  1.8466  0.2680
  297EMI     H5 5632   6.112   1.956   4.439 -0.4516  1.6876  1.5668
  297EMI    C1' 5633   5.780   2.075   4.733  0.0014 -0.1251  0.3451
  297EMI    H1' 5634   5.729   2.122   4.646 -1.9298  1.8042  0.5818
  297EMI    H1' 5635   5.716   1.998   4.775  0.6153 -0.9068  3.6975
  297EMI    H1' 5636   5.804   2.156   4.798 -0.4409 -2.7269  0.6340
  297EMI    C1" 5637   6.266   1.946   4.675  0.5058  0.1393  0.8694
  297EMI    H1" 5638   6.325   2.030   4.637 -1.2412  1.7454 -0.3645
  297EMI    H1" 5639   6.296   1.860   4.603  0.8687 -0.8056 -3.1856
  297EMI    C2" 5640   6.314   1.925   4.818 -0.4807 -0.5496  0.2018
  297EMI    H2" 5641   6.268   2.006   4.871  2.3254  0.4582 -2.0005
  297EMI    H2" 5642   6.267   1.829   4.857 -3.5057 -2.7992 -2.0993
  297EMI    H2" 5643   6.426   1.928   4.811  0.9721 -1.8564 -2.3113
  298EMI     N1 5644   3.531   0.901   6.206  0.5103  0.2656 -0.0843
  298EMI     C2 5645   3.431   0.929   6.290 -0.1726  0.1824 -0.8514
  298EMI     N3 5646   3.310   0.889   6.240 -0.1155 -0.3967  0.0675
  298EMI     C4 5647   3.341   0.843   6.117  0.1243  0.5413  0.3431
  298EMI     C5 5648   3.474   0.838   6.099  0.4902  0.1401  0.0274
  298EMI     H2 5649   3.443   0.989   6.381  0.4689  1.2536  0.0567
  298EMI     H4 5650   3.261   0.805   6.050 -1.1573  1.3779 -1.5605
  298EMI     H5 5651   3.527   0.780   6.017  1.9838 -3.9951 -1.4060
  298EMI    C1' 5652   3.173   0.900   6.290 -0.0579 -0.0709  0.0121
  298EMI    H1' 5653   3.100   0.841   6.234 -0.1543  1.3946 -2.2579
  298EMI    H1' 5654   3.166   0.875   6.394 -0.9795  1.7883 -7.0355
  298EMI    H1' 5655   3.139   1.000   6.270 -0.9247 -1.4380  2.3151
  298EMI    C1" 5656   3.675   0.927   6.222  0.5763 -0.6743 -0.0159
  298EMI    H1" 5657   3.731   0.862   6.164 -1.8467 -0.2430 -1.1115
  298EMI    H1" 5658   3.711   0.915   6.327 -1.8108  1.7430 -1.7076
  298EMI    C2" 5659   3.705   1.063   6.156 -0.6408 -0.7040 -0.7061
  298EMI    H2" 5660   3.655   1.062   6.060  1.0283 -4.2164 -1.3554
  298EMI    H2" 5661   3.660   1.139   6.227  1.0259 -1.4275  1.2076
  298EMI    H2" 5662   3.814   1.088   6.148 -0.2750  1.2487  1.5057
  299EMI     N1 5663   3.110   0.791   3.250 -0.7811 -0.8975 -0.3912
  299EMI     C2 5664   3.068   0.827   3.131  0.6859 -0.6596  0.1616
  299EMI     N3 5665   3.172   0.841   3.049 -0.0877 -0.3241  0.0664
  299EMI     C4 5666   3.287   0.836   3.127  0.0690 -0.2939 -0.9425
  299EMI     C5 5667   3.249   0.803   3.248 -0.3792 -0.4733  0.0594
  299EMI     H2 5668   2.971   0.816   3.092 -0.7721  2.1089  2.1513
  299EMI     H4 5669   3.388   0.850   3.098 -0.9961  2.6174  0.7506
  299EMI     H5 5670   3.318   0.773   3.322  0.9603 -0.2312  1.8015
  299EMI    C1' 5671   3.190   0.839   2.910  0.3659 -0.0088 -0.3305
  299EMI    H1' 5672   3.197   0.737   2.869 -4.5681 -1.0035 -2.2497
  299EMI    H1' 5673   3.105   0.880   2.860 -3.2410  2.6979 -0.6331
  299EMI    H1' 5674   3.291   0.894   2.888  1.0824  0.9783  0.5660
  299EMI    C1" 5675   3.033   0.750   3.366  0.6879  0.6214 -0.1656
  299EMI    H1" 5676   3.077   0.672   3.425 -0.2547  1.5985 -0.5870
  299EMI    H1" 5677   2.940   0.704   3.331  1.0017 -0.0587  0.5498
  299EMI    C2" 5678   2.997   0.859   3.460 -0.7766  0.9875  0.0722
  299EMI    H2" 5679   3.093   0.877   3.506 -2.5790 -1.2505  1.9777
  299EMI    H2" 5680   2.963   0.945   3.412 -3.0884  0.3388  0.6173
  299EMI    H2" 5681   2.925   0.823   3.529  3.1380  0.0651  0.1866
  300EMI     N1 5682   3.999   3.418   0.065  0.0107  0.2567  0.1665
  300EMI     C2 5683   4.026   3.401   0.195  0.3729  0.5642  0.1466
  300EMI     N3 5684   4.161   3.391   0.209  0.8005 -0.0915  0.6788
  300EMI     C4 5685   4.214   3.398   0.082  1.0171 -0.0950 -0.0440
  300EMI     C5 5686   4.114   3.423  -0.005  0.1010  0.4599  0.6750
  300EMI     H2 5687   3.946   3.389   0.270 -1.0653  1.1858  3.3952
  300EMI     H4 5688   4.318   3.389   0.063  1.4480 -1.2124  1.6364
  300EMI     H5 5689   4.118   3.436  -0.111  1.0453  1.2902 -1.9902
  300EMI    C1' 5690   4.242   3.367   0.328 -0.1550  0.3933  0.2199
  300EMI    H1' 5691   4.241   3.462   0.386 -0.2577 -1.6161  0.0456
  300EMI    H1' 5692   4.203   3.280   0.382 -0.1622 -0.5555 -0.5388
  300EMI    H1' 5693   4.341   3.342   0.296 -3.9625 -0.3589  2.5112
  300EMI    C1" 5694   3.871   3.461  -0.001  0.9222 -0.0440  0.3939
  300EMI    H1" 5695   3.893   3.503  -0.102  1.1747 -0.1889  1.6858
  300EMI    H1" 5696   3.833   3.537   0.063  1.8515 -0.0541  1.7917
  300EMI    C2" 5697   3.776   3.342  -0.013 -0.1006 -0.4808  0.1552
  300EMI    H2" 5698   3.717   3.356  -0.097 -0.8896  0.6041  1.6592
  300EMI    H2" 5699   3.827   3.245  -0.031  3.6078 -0.6926  2.4255
  300EMI    H2" 5700   3.721   3.342   0.077 -0.0364  1.7693  0.5000
  301EMI     N1 5701   0.126   1.561   0.429  0.5458  0.6905  0.0880
  301EMI     C2 5702   0.110   1.577   0.294 -0.2332 -1.3676 -0.4631
  301EMI     N3 5703   0.127   1.467   0.229  0.4316  0.2436  0.5191
  301EMI     C4 5704   0.152   1.370   0.321  0.1842 -0.2425  0.3433
  301EMI     C5 5705   0.156   1.423   0.441 -0.6653 -0.1023  0.3764
  301EMI     H2 5706   0.065   1.666   0.253  0.1825  1.1718 -0.5575
  301EMI     H4 5707   0.153   1.267   0.307 -1.0420  1.1710  0.5489
  301EMI     H5 5708   0.176   1.366   0.534 -1.1873  1.7356 -3.7840
  301EMI    C1' 5709   0.094   1.444   0.081 -0.7847 -0.3757  0.2493
  301EMI    H1' 5710   0.119   1.344   0.057 -0.8200  1.0861  1.1746
  301EMI    H1' 5711  -0.008   1.465   0.054  1.1489 -1.7326 -0.1342
  301EMI    H1' 5712   0.156   1.515   0.029 -0.6561 -1.2539 -0.5452
  301EMI    C1" 5713   0.144   1.663   0.534 -0.9776 -0.8771  0.1962
  301EMI    H1" 5714   0.134   1.766   0.499 -0.5223 -2.8249  0.9467
  301EMI    H1" 5715   0.239   1.657   0.578 -0.9420  1.0576  1.5752
  301EMI    C2" 5716   0.040   1.638   0.632  0.6389  0.2674  0.1078
  301EMI    H2" 5717   0.055   1.701   0.722  0.4304 -1.1383  0.1803
  301EMI    H2" 5718  -0.060   1.645   0.597  2.1262 -0.3685  0.5075
  301EMI    H2" 5719   0.052   1.534   0.661  0.4897  2.0017  0.1771
  302EMI     N1 5720   4.485   5.701   3.728  0.8232  0.2740 -0.0994
  302EMI     C2 5721   4.361   5.731   3.692  1.2923  0.2951  0.2675
  302EMI     N3 5722   4.281   5.738   3.804  0.1572 -0.3286  0.7492
  302EMI     C4 5723   4.357   5.700   3.906  0.3445 -0.1702 -0.3206
  302EMI     C5 5724   4.484   5.689   3.861 -0.8035 -0.1479 -0.6392
  302EMI     H2 5725   4.323   5.738   3.583 -2.5974 -2.4297 -0.0442
  302EMI     H4 5726   4.324   5.686   4.008 -2.5055  1.9411 -1.3719
  302EMI     H5 5727   4.569   5.663   3.921 -0.7976 -2.4112 -1.2945
  302EMI    C1' 5728   4.137   5.761   3.823 -0.2908  0.4626  0.9345
  302EMI    H1' 5729   4.087   5.660   3.838  0.3427  1.7139  0.0191
  302EMI    H1' 5730   4.100   5.826   3.900  2.4071 -1.7372 -1.1701
  302EMI    H1' 5731   4.096   5.808   3.730 -1.9061 -1.8261 -0.2789
  302EMI    C1" 5732   4.606   5.682   3.647  0.0076  0.5285 -0.3221
  302EMI    H1" 5733   4.678   5.743   3.695 -1.9001  1.1747 -0.2862
  302EMI    H1" 5734   4.573   5.719   3.548 -1.6607  0.2776 -2.3795
  302EMI    C2" 5735   4.639   5.531   3.638 -0.1749  0.2754  1.2771
  302EMI    H2" 5736   4.729   5.528   3.578 -0.0356  1.8981 -2.0169
  302EMI    H2" 5737   4.660   5.497   3.731 -2.0548  0.4959 -1.1269
  302EMI    H2" 5738   4.557   5.478   3.596  1.8357 -1.1087  0.2878
  303EMI     N1 5739   2.978   4.027   5.332  0.1104 -1.4241 -0.0298
  303EMI     C2 5740   2.908   3.993   5.221 -0.4612  1.1925  0.8605
  303EMI     N3 5741   2.798   4.075   5.209 -0.0615  0.3284  0.3159
  303EMI     C4 5742   2.812   4.177   5.300 -0.3443  0.0624  0.1099
  303EMI     C5 5743   2.923   4.144   5.369 -0.0411  0.1279  0.2330
  303EMI     H2 5744   2.927   3.907   5.162 -0.6437 -0.3968  0.7482
  303EMI     H4 5745   2.749   4.260   5.309 -0.7029 -0.0776  1.3341
  303EMI     H5 5746   2.967   4.204   5.439 -1.3939  1.5275  2.6793
  303EMI    C1' 5747   2.678   4.060   5.128 -0.1067  0.0079 -0.2806
  303EMI    H1' 5748   2.597   4.045   5.197  0.5366  1.0857 -1.3757
  303EMI    H1' 5749   2.658   4.151   5.069  1.7740 -1.2727 -2.5650
  303EMI    H1' 5750   2.687   3.972   5.066 -2.4804 -1.8420 -1.4758
  303EMI    C1" 5751   3.096   3.956   5.400  1.1440  0.4136  0.2440
  303EMI    H1" 5752   3.175   4.017   5.433  0.1678 -0.7512 -0.7471
  303EMI    H1" 5753   3.142   3.888   5.331  1.4788  1.2343 -1.7488
  303EMI    C2" 5754   3.045   3.870   5.515 -0.5959  0.0366  0.3852
  303EMI    H2" 5755   3.006   3.933   5.591  0.0827 -1.3147 -0.3397
  303EMI    H2" 5756   2.968   3.806   5.473 -1.4103  0.2241 -0.7918
  303EMI    H2" 5757   3.125   3.807   5.569  3.3274  0.4645  1.9106
  304EMI     N1 5758   6.226   3.771   4.099  0.0964  0.2002 -0.1513
  304EMI     C2 5759   6.271   3.657   4.049  0.8875  0.9177 -0.1215
  304EMI     N3 5760   6.387   3.628   4.111 -0.3156  0.8653 -0.2237
  304EMI     C4 5761   6.406   3.718   4.210 -0.1424 -0.7805  0.3485
  304EMI     C5 5762   6.311   3.808   4.198 -0.3441 -0.1006  0.2103
  304EMI     H2 5763   6.219   3.599   3.977  1.6017  0.4216  2.2860
  304EMI     H4 5764   6.496   3.739   4.270 -0.8374  0.2827  0.0667
  304EMI     H5 5765   6.298   3.900   4.246 -1.5479 -2.2856  1.6014
  304EMI    C1' 5766   6.465   3.506   4.103  0.2614 -0.2814  0.3499
  304EMI    H1' 5767   6.544   3.517   4.023 -0.5558  0.3969  0.4325
  304EMI    H1' 5768   6.518   3.478   4.193  1.4442  0.2795 -1.1597
  304EMI    H1' 5769   6.405   3.423   4.076 -1.2695  0.2952 -0.4357
  304EMI    C1" 5770   6.106   3.846   4.059 -0.3937  0.2734 -0.0148
  304EMI    H1" 5771   6.061   3.839   4.156  1.5607  0.2059 -2.7508
  304EMI    H1" 5772   6.052   3.784   3.981  0.2292 -1.0868 -2.2536
  304EMI    C2" 5773   6.133   3.985   4.017 -0.0872  0.5034  0.3876
  304EMI    H2" 5774   6.041   4.033   3.978  1.2777  0.6260 -1.4720
  304EMI    H2" 5775   6.188   4.037   4.093 -0.5054 -1.5936 -1.8077
  304EMI    H2" 5776   6.203   3.990   3.931 -2.3773  0.5598  0.6581
  305EMI     N1 5777   4.014   4.610   2.669  0.1578 -0.3652  0.2799
  305EMI     C2 5778   4.145   4.627   2.646 -0.5197 -0.1187  0.1953
  305EMI     N3 5779   4.160   4.672   2.515  0.0538 -0.0913 -0.1640
  305EMI     C4 5780   4.038   4.683   2.456 -0.6086  0.2634 -0.0826
  305EMI     C5 5781   3.949   4.657   2.556  0.2489 -0.6644 -0.8903
  305EMI     H2 5782   4.218   4.615   2.724 -1.0081  1.6381  1.3179
  305EMI     H4 5783   4.031   4.705   2.352 -1.0073  0.5900  1.5855
  305EMI     H5 5784   3.842   4.671   2.532  1.9226 -0.4934 -0.3311
  305EMI    C1' 5785   4.290   4.682   2.439 -0.6222  0.8515 -0.0200
  305EMI    H1' 5786   4.354   4.760   2.474  1.2708 -0.5423  1.3573
  305EMI    H1' 5787   4.339   4.587   2.437 -0.6907  0.9523  1.2109
  305EMI    H1' 5788   4.271   4.719   2.338  1.9029 -0.0757  0.1777
  305EMI    C1" 5789   3.938   4.574   2.785  0.5262  0.0664 -0.8092
  305EMI    H1" 5790   3.858   4.648   2.797 -0.0536  0.8260  1.8314
  305EMI    H1" 5791   4.004   4.571   2.870 -2.3831 -0.0632 -1.5058
  305EMI    C2" 5792   3.869   4.437   2.766  0.4316  0.8057 -0.5669
  305EMI    H2" 5793   3.945   4.361   2.734  0.7089 -0.8441 -0.1553
  305EMI    H2" 5794   3.822   4.406   2.860  0.7836 -3.1793  1.0643
  305EMI    H2" 5795   3.790   4.441   2.688  1.1856 -0.4031  0.5558
  306EMI     N1 5796   1.682   5.090   1.488  0.3235 -0.9577  0.1691
  306EMI     C2 5797   1.585   5.167   1.548 -0.5585  0.1801 -0.5310
  306EMI     N3 5798   1.486   5.086   1.603  0.5322 -0.0038  0.5314
  306EMI     C4 5799   1.523   4.958   1.566  0.1975 -0.0368  0.6734
  306EMI     C5 5800   1.642   4.961   1.505 -0.4119 -0.4497 -0.0691
  306EMI     H2 5801   1.580   5.270   1.556  0.5797  1.3471 -1.8977
  306EMI     H4 5802   1.466   4.872   1.588 -0.3976 -0.9291 -1.9560
  306EMI     H5 5803   1.683   4.877   1.473  0.9079  2.7730  2.0064
  306EMI    C1' 5804   1.360   5.105   1.672 -0.4357  0.5550  0.5260
  306EMI    H1' 5805   1.283   5.160   1.611 -0.7892 -1.0818 -1.4888
  306EMI    H1' 5806   1.316   5.012   1.702 -1.1537  0.1070  0.0689
  306EMI    H1' 5807   1.380   5.155   1.761 -0.2767 -0.5704 -0.7705
  306EMI    C1" 5808   1.795   5.133   1.400  0.0507 -0.3553  0.4164
  306EMI    H1" 5809   1.880   5.084   1.437 -1.7740  2.1364 -1.6965
  306EMI    H1" 5810   1.812   5.241   1.404  1.0410 -0.3571 -1.9652
  306EMI    C2" 5811   1.784   5.109   1.246  0.7443 -0.4397  0.7275
  306EMI    H2" 5812   1.763   5.003   1.226 -0.7590 -2.0063 -0.6299
  306EMI    H2" 5813   1.698   5.165   1.204  3.0261  0.0327 -0.4615
  306EMI    H2" 5814   1.885   5.140   1.207  0.2640  0.2718 -0.0365
  307EMI     N1 5815   1.344   4.085   1.438 -0.5234  0.3888  0.6314
  307EMI     C2 5816   1.248   4.012   1.502 -0.4766 -0.3037  0.2446
  307EMI     N3 5817   1.139   4.003   1.425 -0.3790  0.2072 -0.0801
  307EMI     C4 5818   1.160   4.077   1.315 -0.1220 -0.4303  0.2212
  307EMI     C5 5819   1.283   4.130   1.323  0.0401 -0.0850  0.3550
  307EMI     H2 5820   1.263   3.964   1.597  0.7397  0.1539 -0.5884
  307EMI     H4 5821   1.080   4.091   1.241  0.0271  1.1800  0.6592
  307EMI     H5 5822   1.324   4.196   1.249 -0.7669  0.3463  1.2872
  307EMI    C1' 5823   1.013   3.938   1.448 -0.4321  0.1253 -0.2298
  307EMI    H1' 5824   1.015   3.883   1.542 -0.4398 -0.3733 -0.5758
  307EMI    H1' 5825   0.944   4.018   1.445 -2.1388  0.6491 -0.7583
  307EMI    H1' 5826   1.000   3.870   1.362  2.0113 -2.6702 -3.5537
  307EMI    C1" 5827   1.485   4.118   1.478 -0.7546 -0.7191 -0.6504
  307EMI    H1" 5828   1.533   4.191   1.411  0.4525 -0.5366  1.7293
  307EMI    H1" 5829   1.538   4.026   1.466 -1.6241 -1.4855 -0.5034
  307EMI    C2" 5830   1.494   4.159   1.623 -0.0537 -0.3821  0.3403
  307EMI    H2" 5831   1.595   4.174   1.659 -0.2329  1.1353  0.7600
  307EMI    H2" 5832   1.445   4.250   1.643  0.0014  0.1327  0.4979
  307EMI    H2" 5833   1.453   4.087   1.683 -0.8907  0.6164 -1.3708
  308EMI     N1 5834   0.502   3.681   6.010  0.8972  0.3723  0.1895
  308EMI     C2 5835   0.436   3.787   6.066 -0.1661 -0.0630  0.5776
  308EMI     N3 5836   0.334   3.745   6.141  0.2234 -0.5116 -0.4631
  308EMI     C4 5837   0.350   3.615   6.152  0.6428  0.0181 -0.3267
  308EMI     C5 5838   0.439   3.570   6.064  0.1641  0.0907 -0.1460
  308EMI     H2 5839   0.468   3.887   6.038 -0.6874 -2.1103 -1.7532
  308EMI     H4 5840   0.283   3.552   6.215  1.5209  0.2729 -0.4431
  308EMI     H5 5841   0.461   3.464   6.050 -0.3059 -0.7718 -1.1628
  308EMI    C1' 5842   0.230   3.818   6.211 -0.2039  0.3106  0.1474
  308EMI    H1' 5843   0.181   3.753   6.282  1.2795  2.1089 -0.3640
  308EMI    H1' 5844   0.275   3.903   6.265 -0.1420  2.4529  2.6384
  308EMI    H1' 5845   0.166   3.850   6.136  0.8646 -4.2113  0.9613
  308EMI    C1" 5846   0.620   3.670   5.924 -0.2133  0.3593 -0.5750
  308EMI    H1" 5847   0.690   3.612   5.983 -1.2877 -0.4077  0.9745
  308EMI    H1" 5848   0.669   3.763   5.901 -1.9677  1.1414 -1.7190
  308EMI    C2" 5849   0.587   3.601   5.792 -0.4804 -0.7783  0.3886
  308EMI    H2" 5850   0.514   3.654   5.737 -0.0026 -1.0927 -0.1319
  308EMI    H2" 5851   0.679   3.586   5.734  3.0453 -0.9031  0.3089
  308EMI    H2" 5852   0.552   3.503   5.824 -0.9312 -0.4900 -1.1264
  309EMI     N1 5853   2.043   2.900   6.426  0.4468  0.2416  0.0873
  309EMI     C2 5854   2.173   2.867   6.422 -0.3784 -0.0816 -0.5152
  309EMI     N3 5855   2.204   2.830   6.297  0.4371  0.4014  0.9020
  309EMI     C4 5856   2.085   2.827   6.225 -0.2925  0.7016 -0.6301
  309EMI     C5 5857   1.987   2.871   6.304  0.4693 -0.3268 -0.1302
  309EMI     H2 5858   2.245   2.884   6.503 -1.3714  0.0936  2.5427
  309EMI     H4 5859   2.073   2.803   6.118 -1.0136  4.3588 -0.3598
  309EMI     H5 5860   1.884   2.876   6.288  0.0603  2.1421  1.8283
  309EMI    C1' 5861   2.325   2.789   6.237  0.4965  0.3084  0.2114
  309EMI    H1' 5862   2.310   2.679   6.230 -0.7725 -1.3524 -1.8051
  309EMI    H1' 5863   2.340   2.824   6.134 -0.0635 -0.6422  0.6590
  309EMI    H1' 5864   2.403   2.813   6.309 -0.4692 -3.6373  1.9886
  309EMI    C1" 5865   1.966   2.946   6.543  0.4699  0.0702 -0.4589
  309EMI    H1" 5866   1.895   2.864   6.559 -0.7499 -0.8366  0.0829
  309EMI    H1" 5867   1.909   3.035   6.514  1.4345  0.1395  0.0837
  309EMI    C2" 5868   2.046   2.973   6.675  0.6112  0.2114 -0.5395
  309EMI    H2" 5869   2.087   2.877   6.717  0.5987  1.7692  0.7683
  309EMI    H2" 5870   2.112   3.049   6.655 -2.0913 -0.5398  2.3722
  309EMI    H2" 5871   1.983   3.024   6.742 -1.0017 -0.5671  0.4384
  310EMI     N1 5872   1.129   1.983   4.148 -0.3721  0.6557 -0.2813
  310EMI     C2 5873   1.025   1.936   4.222  0.6049  0.2782 -0.3198
  310EMI     N3 5874   0.926   1.909   4.136 -0.3599 -0.0678  0.4524
  310EMI     C4 5875   0.964   1.950   4.012 -0.3390 -0.3582  0.8107
  310EMI     C5 5876   1.088   1.994   4.014  0.1698 -0.1858 -0.6211
  310EMI     H2 5877   1.026   1.907   4.326  2.3186  2.2706  1.7966
  310EMI     H4 5878   0.908   1.937   3.922  1.1090 -0.8690  2.6330
  310EMI     H5 5879   1.141   2.017   3.924 -1.6277 -1.7154 -0.6957
  310EMI    C1' 5880   0.804   1.843   4.169  0.7404  0.1152  0.1874
  310EMI    H1' 5881   0.732   1.842   4.091 -1.7617  1.4568  0.4711
  310EMI    H1' 5882   0.831   1.747   4.200  2.3048  2.2595 -3.3902
  310EMI    H1' 5883   0.771   1.894   4.261 -1.2818  1.0398  1.6201
  310EMI    C1" 5884   1.269   2.012   4.187  0.3781  0.2638 -0.1348
  310EMI    H1" 5885   1.327   2.046   4.109  0.0034 -0.8181 -1.5165
  310EMI    H1" 5886   1.329   1.926   4.224  1.2725  1.8314  0.3597
  310EMI    C2" 5887   1.272   2.108   4.306 -0.1480  0.2340 -0.2585
  310EMI    H2" 5888   1.382   2.120   4.338  2.1818  1.1540  0.2396
  310EMI    H2" 5889   1.227   2.208   4.288 -0.6116  0.8517 -0.8897
  310EMI    H2" 5890   1.226   2.056   4.392  0.2371  0.0684  1.9016
  311EMI     N1 5891   4.277   6.556   4.389  0.4135  0.2483 -0.3620
  311EMI     C2 5892   4.268   6.670   4.460  1.0907  0.8449 -0.1320
  311EMI     N3 5893   4.140   6.718   4.450  0.0786 -0.1091  0.0721
  311EMI     C4 5894   4.071   6.636   4.365  0.2783 -0.0969 -0.6508
  311EMI     C5 5895   4.152   6.527   4.339  0.0174  0.2083  0.3078
  311EMI     H2 5896   4.346   6.710   4.527 -0.3746 -3.3307 -0.8241
  311EMI     H4 5897   3.968   6.645   4.337 -2.0842  2.5124 -3.1511
  311EMI     H5 5898   4.118   6.440   4.282  0.5587 -0.6352  0.5203
  311EMI    C1' 5899   4.069   6.835   4.514 -0.5956 -0.2333  0.2544
  311EMI    H1' 5900   3.971   6.828   4.482 -0.5073  1.5600  0.8932
  311EMI    H1' 5901   4.081   6.846   4.619  1.8976  1.0505  1.4897
  311EMI    H1' 5902   4.133   6.913   4.486  0.9828  2.9354  2.2022
  311EMI    C1" 5903   4.395   6.470   4.363  0.6094  0.2410 -0.7632
  311EMI    H1" 5904   4.350   6.388   4.308 -3.1296 -0.7556  0.3843
  311EMI    H1" 5905   4.441   6.448   4.452 -0.1076 -1.2561 -1.3381
  311EMI    C2" 5906   4.501   6.539   4.278 -0.7179 -0.5043  0.4761
  311EMI    H2" 5907   4.466   6.566   4.178 -2.6635 -2.8996  0.5103
  311EMI    H2" 5908   4.529   6.636   4.323  1.0699 -0.0681 -0.0651
  311EMI    H2" 5909   4.590   6.480   4.262 -0.0285  1.7729  1.1320
  312EMI     N1 5910   5.230   1.125   1.914  0.0023  1.2477 -0.5343
  312EMI     C2 5911   5.270   1.170   1.794 -0.4566  0.3864 -0.4702
  312EMI     N3 5912   5.399   1.186   1.789  0.2267  0.1968  0.6221
  312EMI     C4 5913   5.449   1.164   1.916 -0.4966 -1.6933  0.9323
  312EMI     C5 5914   5.344   1.126   1.990 -0.5204  0.0600 -0.0546
  312EMI     H2 5915   5.207   1.188   1.711  0.6643  0.1174 -2.2584
  312EMI     H4 5916   5.551   1.179   1.949 -0.2200 -0.5401 -1.7473
  312EMI     H5 5917   5.354   1.112   2.096 -1.3953  2.1776 -0.1836
  312EMI    C1' 5918   5.480   1.235   1.680 -0.1540  0.3314 -0.3081
  312EMI    H1' 5919   5.476   1.346   1.691  0.1618  0.8573  0.8516
  312EMI    H1' 5920   5.581   1.193   1.703  1.4973 -2.7110  2.0454
  312EMI    H1' 5921   5.437   1.196   1.586 -1.2086 -1.6740  0.6665
  312EMI    C1" 5922   5.101   1.094   1.978  0.5282  0.1308 -0.6151
  312EMI    H1" 5923   5.077   1.178   2.050  1.6442  0.9739 -0.3535
  312EMI    H1" 5924   5.104   1.000   2.025  1.0953  3.2916 -0.4488
  312EMI    C2" 5925   4.995   1.087   1.863  0.3996 -0.5084  0.0752
  312EMI    H2" 5926   5.004   1.178   1.804  1.5756 -1.4548  2.2728
  312EMI    H2" 5927   5.007   1.001   1.795  1.6631 -1.6215  1.2930
  312EMI    H2" 5928   4.897   1.085   1.900  1.4121 -1.9355 -0.0546
  313EMI     N1 5929   2.997   3.624   6.632 -0.2476 -0.6168  0.1119
  313EMI     C2 5930   3.101   3.559   6.680  0.3869  0.1042 -0.0541
  313EMI     N3 5931   3.114   3.442   6.620  0.1899  0.7921 -0.2474
  313EMI     C4 5932   3.008   3.424   6.537  0.4217 -0.7776 -0.5091
  313EMI     C5 5933   2.937   3.536   6.542  0.1386  0.6009 -0.6532
  313EMI     H2 5934   3.178   3.599   6.743 -2.4372 -0.2872 -2.2723
  313EMI     H4 5935   2.985   3.348   6.471 -0.5101  1.2135  0.8372
  313EMI     H5 5936   2.846   3.554   6.492 -1.0083  1.4137 -0.4514
  313EMI    C1' 5937   3.217   3.338   6.649  0.1529  0.6689 -0.2247
  313EMI    H1' 5938   3.168   3.245   6.625 -1.9340 -0.3726  0.4650
  313EMI    H1' 5939   3.305   3.352   6.586  0.2953  0.0891  0.7232
  313EMI    H1' 5940   3.247   3.331   6.756 -0.4101 -3.2153  0.0628
  313EMI    C1" 5941   2.939   3.752   6.671  0.5266 -0.3076  0.1871
  313EMI    H1" 5942   2.930   3.755   6.778 -1.3074  1.2795 -0.0690
  313EMI    H1" 5943   2.845   3.761   6.621  2.6570  0.3281  0.1505
  313EMI    C2" 5944   3.028   3.862   6.622 -0.4432 -0.1769  0.3931
  313EMI    H2" 5945   3.043   3.854   6.516  0.9154 -3.4510  0.6298
  313EMI    H2" 5946   2.984   3.959   6.645  0.1607 -1.0616 -0.9699
  313EMI    H2" 5947   3.119   3.856   6.681 -1.5928 -2.1837  2.1440
  314EMI     N1 5948   3.733   1.682   0.561 -0.0965  0.0133  0.2738
  314EMI     C2 5949   3.787   1.672   0.445  0.3968 -0.1820  0.0082
  314EMI     N3 5950   3.696   1.680   0.344 -0.0653 -0.4674 -0.8139
  314EMI     C4 5951   3.574   1.710   0.405 -0.1947 -0.5388  0.3865
  314EMI     C5 5952   3.597   1.702   0.540  0.3309  0.3486 -0.7201
  314EMI     H2 5953   3.889   1.644   0.436 -1.9836 -0.3002 -1.8504
  314EMI     H4 5954   3.476   1.723   0.364 -0.1862 -1.3019 -0.7846
  314EMI     H5 5955   3.526   1.731   0.624 -3.4935  0.4784 -1.4536
  314EMI    C1' 5956   3.712   1.678   0.196  0.3758 -0.0363  0.2189
  314EMI    H1' 5957   3.667   1.764   0.154 -0.4094  0.0260 -1.4957
  314EMI    H1' 5958   3.817   1.667   0.175 -2.5602 -3.1716 -2.0312
  314EMI    H1' 5959   3.651   1.589   0.154  0.6550  1.8250 -0.6484
  314EMI    C1" 5960   3.790   1.665   0.701  0.5305 -0.3132 -0.4498
  314EMI    H1" 5961   3.707   1.698   0.769  1.7708 -0.1808 -0.0930
  314EMI    H1" 5962   3.871   1.736   0.724 -0.8733 -1.1327 -1.2020
  314EMI    C2" 5963   3.823   1.524   0.731 -0.2083  0.4441  0.4290
  314EMI    H2" 5964   3.890   1.492   0.650  0.4787 -0.9664 -0.8759
  314EMI    H2" 5965   3.874   1.516   0.824  2.4795  3.3073 -0.8227
  314EMI    H2" 5966   3.732   1.460   0.734 -0.8329  0.9971 -0.9592
  315EMI     N1 5967   4.478   6.587   5.547 -0.2063 -0.7129 -0.1603
  315EMI     C2 5968   4.597   6.539   5.570  0.0498  0.0458  0.4425
  315EMI     N3 5969   4.582   6.419   5.618  0.4984  0.7910 -0.5697
  315EMI     C4 5970   4.449   6.392   5.636  0.2850 -0.5180  0.2034
  315EMI     C5 5971   4.384   6.499   5.590  0.9670 -0.1304 -0.3216
  315EMI     H2 5972   4.691   6.584   5.559  0.0556 -2.3157 -0.9272
  315EMI     H4 5973   4.393   6.302   5.669  1.2805  1.1218 -1.7572
  315EMI     H5 5974   4.279   6.520   5.580  1.1645  3.8682 -0.7647
  315EMI    C1' 5975   4.685   6.315   5.645  0.5469  0.6308 -1.0013
  315EMI    H1' 5976   4.778   6.360   5.677 -1.5168  0.8243  1.0931
  315EMI    H1' 5977   4.658   6.258   5.742 -0.3094 -0.1633 -0.7557
  315EMI    H1' 5978   4.704   6.239   5.567 -1.2878 -1.7201  0.8832
  315EMI    C1" 5979   4.433   6.713   5.478 -0.0661 -0.4890 -0.0035
  315EMI    H1" 5980   4.454   6.797   5.532 -0.1129 -0.4031 -0.3818
  315EMI    H1" 5981   4.328   6.701   5.458 -0.8113 -2.4795 -2.2283
  315EMI    C2" 5982   4.497   6.738   5.341  0.7815  0.7644 -0.3192
  315EMI    H2" 5983   4.473   6.653   5.275  1.0196  0.7882  3.1894
  315EMI    H2" 5984   4.467   6.830   5.290 -1.7922 -0.1831 -1.7892
  315EMI    H2" 5985   4.607   6.735   5.358  0.5010 -0.4470 -0.3196
  316EMI     N1 5986   2.718   3.896   3.059 -0.8494  0.3160  0.0348
  316EMI     C2 5987   2.613   3.815   3.053  0.1161  0.2027  0.5146
  316EMI     N3 5988   2.614   3.736   2.946  0.1327  0.0570  0.0785
  316EMI     C4 5989   2.731   3.762   2.884  0.1213  0.2360 -0.4377
  316EMI     C5 5990   2.794   3.867   2.946 -1.0421 -0.3215  0.3490
  316EMI     H2 5991   2.532   3.831   3.126 -2.9942  0.3970  1.6009
  316EMI     H4 5992   2.770   3.719   2.790 -0.8986  0.4349 -1.6897
  316EMI     H5 5993   2.887   3.915   2.912  0.0757 -1.7168  1.7349
  316EMI    C1' 5994   2.509   3.649   2.891 -0.1391  0.0498  0.5670
  316EMI    H1' 5995   2.561   3.588   2.818  0.1850 -1.2648  0.5947
  316EMI    H1' 5996   2.471   3.586   2.976 -0.8935  1.1684  3.3597
  316EMI    H1' 5997   2.428   3.703   2.837  0.7156  0.6960 -2.4790
  316EMI    C1" 5998   2.753   3.996   3.163 -0.4473  0.2880  0.3227
  316EMI    H1" 5999   2.665   4.041   3.197  0.6112  0.0113 -0.8850
  316EMI    H1" 6000   2.824   4.080   3.132  1.7493  0.4751  0.8618
  316EMI    C2" 6001   2.835   3.920   3.271  0.4972  0.5644  0.1712
  316EMI    H2" 6002   2.940   3.891   3.237  0.4656 -0.7690  0.8171
  316EMI    H2" 6003   2.846   3.992   3.353 -0.4596  0.1032  1.5567
  316EMI    H2" 6004   2.788   3.822   3.296 -1.5522 -0.7715  1.1842
  317EMI     N1 6005   6.266   5.616   0.189 -0.1864 -0.9471  0.1204
  317EMI     C2 6006   6.337   5.729   0.201  0.3085  0.2227 -0.0460
  317EMI     N3 6007   6.445   5.725   0.119  0.3008  0.0672  0.2275
  317EMI     C4 6008   6.433   5.611   0.047  0.1924  0.5598 -0.6577
  317EMI     C5 6009   6.328   5.541   0.090 -0.2618  0.1635  0.4654
  317EMI     H2 6010   6.310   5.810   0.255  2.1608 -0.6629  3.3134
  317EMI     H4 6011   6.496   5.571  -0.037  1.5769 -2.0332 -1.0840
  317EMI     H5 6012   6.295   5.446   0.046 -2.6825 -3.0480 -1.0840
  317EMI    C1' 6013   6.559   5.823   0.097 -0.2737  0.7390  0.3234
  317EMI    H1' 6014   6.662   5.773   0.096  1.3928  0.3913 -1.2981
  317EMI    H1' 6015   6.538   5.867   0.000 -0.3089  0.8125 -0.8939
  317EMI    H1' 6016   6.552   5.913   0.165 -3.1890  1.4491 -2.0553
  317EMI    C1" 6017   6.145   5.555   0.257 -0.4041 -0.6707 -0.1459
  317EMI    H1" 6018   6.141   5.453   0.227 -2.9299  0.9572  1.2785
  317EMI    H1" 6019   6.054   5.598   0.224 -2.5493  0.8242  1.7945
  317EMI    C2" 6020   6.166   5.573   0.400 -0.1601  0.6239 -0.1592
  317EMI    H2" 6021   6.096   5.504   0.447 -3.7799 -3.7979  0.1115
  317EMI    H2" 6022   6.273   5.532   0.423  1.2605 -0.8989  1.1391
  317EMI    H2" 6023   6.157   5.665   0.447  0.0958  1.1719 -1.7004
  318EMI     N1 6024   2.394   5.253   0.939  0.1356  0.4293  0.7193
  318EMI     C2 6025   2.355   5.131   0.994  0.3185  0.1426 -0.5495
  318EMI     N3 6026   2.225   5.136   1.034  0.4832  0.4364  0.1377
  318EMI     C4 6027   2.182   5.266   1.009  0.0810 -0.4814 -0.9815
  318EMI     C5 6028   2.283   5.334   0.950  0.2220 -0.1134 -0.0315
  318EMI     H2 6029   2.418   5.047   1.016 -1.9958  0.1874  2.1559
  318EMI     H4 6030   2.088   5.310   1.048 -1.2776  1.0480  1.1615
  318EMI     H5 6031   2.295   5.437   0.918 -1.8230 -0.9422  0.3305
  318EMI    C1' 6032   2.146   5.024   1.092 -1.1604 -0.1213 -0.2609
  318EMI    H1' 6033   2.081   4.978   1.017  0.9719  0.6584  0.2406
  318EMI    H1' 6034   2.205   4.950   1.151  1.0191  3.2787  0.2315
  318EMI    H1' 6035   2.088   5.075   1.164  3.1856  1.7892  0.5896
  318EMI    C1" 6036   2.523   5.304   0.882  0.4406 -0.2042 -0.3202
  318EMI    H1" 6037   2.603   5.286   0.948 -1.2331 -2.6766 -0.4006
  318EMI    H1" 6038   2.513   5.405   0.862  1.0892  0.3676 -2.1327
  318EMI    C2" 6039   2.542   5.221   0.753  0.3043 -0.6998 -0.6022
  318EMI    H2" 6040   2.458   5.251   0.689 -1.8730  2.3652  2.0308
  318EMI    H2" 6041   2.647   5.227   0.715 -0.0456  0.1212  0.9906
  318EMI    H2" 6042   2.520   5.115   0.775  0.8088  0.9120  1.1502
  319EMI     N1 6043   3.124   2.872   5.805 -0.5380 -0.4611 -0.4366
  319EMI     C2 6044   3.248   2.898   5.845 -0.0937 -0.3226  0.3818
  319EMI     N3 6045   3.330   2.791   5.817 -0.0242 -0.7913  0.1219
  319EMI     C4 6046   3.249   2.696   5.759 -0.8643 -0.2683  0.4113
  319EMI     C5 6047   3.125   2.742   5.758  0.0891 -1.5901 -0.1089
  319EMI     H2 6048   3.292   2.982   5.891  0.1267 -2.4855  0.7585
  319EMI     H4 6049   3.278   2.603   5.713 -0.9479  0.6910 -1.5095
  319EMI     H5 6050   3.037   2.692   5.718  1.5493 -0.3461  0.6303
  319EMI    C1' 6051   3.473   2.790   5.825  0.0478  0.2839 -0.0198
  319EMI    H1' 6052   3.511   2.692   5.793 -0.3196  0.2945 -3.3433
  319EMI    H1' 6053   3.520   2.862   5.768 -0.5724  0.0832  4.0596
  319EMI    H1' 6054   3.503   2.796   5.933  0.6486 -3.2776 -0.1560
  319EMI    C1" 6055   3.005   2.960   5.801 -0.7659  0.4459  0.0583
  319EMI    H1" 6056   2.936   2.927   5.727  0.1601  0.4741 -0.3101
  319EMI    H1" 6057   3.037   3.061   5.776  0.1623 -1.3717 -1.4037
  319EMI    C2" 6058   2.945   2.961   5.940 -0.9051 -0.0223  0.1810
  319EMI    H2" 6059   2.930   2.866   5.985  0.0096  0.4648 -1.3001
  319EMI    H2" 6060   3.017   3.016   6.010 -0.8045  0.0715  1.3983
  319EMI    H2" 6061   2.847   3.008   5.936  2.5770  1.5684 -0.0660
  320EMI     N1 6062   6.746   4.023   6.589  0.1835  0.2072 -0.1356
  320EMI     C2 6063   6.810   3.982   6.479  0.1144 -0.1427  0.8251
  320EMI     N3 6064   6.812   4.076   6.388 -0.4405 -0.1896 -0.5791
  320EMI     C4 6065   6.750   4.191   6.441  0.1080  0.1161 -0.2609
  320EMI     C5 6066   6.709   4.149   6.558 -0.1311 -0.4828 -0.8912
  320EMI     H2 6067   6.851   3.879   6.466 -1.4757 -0.4745  1.0865
  320EMI     H4 6068   6.738   4.284   6.382  0.2591 -0.0022 -0.2352
  320EMI     H5 6069   6.651   4.220   6.624 -1.2410  1.6016 -3.0776
  320EMI    C1' 6070   6.867   4.077   6.255 -0.3903  0.4836  0.5498
  320EMI    H1' 6071   6.800   4.027   6.185  3.3841 -1.7125  0.1356
  320EMI    H1' 6072   6.888   4.188   6.239 -0.7441 -1.8256  0.3177
  320EMI    H1' 6073   6.965   4.027   6.254 -0.2793 -0.7844  0.6340
  320EMI    C1" 6074   6.722   3.956   6.725 -0.6361 -0.0020  0.3959
  320EMI    H1" 6075   6.638   3.881   6.711 -0.9355 -3.0494  0.3299
  320EMI    H1" 6076   6.681   4.023   6.795  2.5598  1.1693  0.3556
  320EMI    C2" 6077   6.849   3.894   6.791  0.9801 -0.8651  0.4178
  320EMI    H2" 6078   6.886   3.950   6.880 -2.7798  0.9386 -0.3457
  320EMI    H2" 6079   6.825   3.792   6.818  0.8667  1.7323 -0.2434
  320EMI    H2" 6080   6.927   3.874   6.718 -1.2020  0.6033 -0.3781
  321EMI     N1 6081   0.847   6.209   2.753  0.0261  0.2640  0.5088
  321EMI     C2 6082   0.727   6.143   2.738 -0.1977 -0.8166 -0.2987
  321EMI     N3 6083   0.682   6.103   2.856  0.0358 -0.7643  0.2023
  321EMI     C4 6084   0.774   6.138   2.947  0.0369  0.0236 -0.0967
  321EMI     C5 6085   0.878   6.200   2.884 -1.2797  0.4770 -0.1302
  321EMI     H2 6086   0.675   6.127   2.647  0.6434  2.3357 -0.4398
  321EMI     H4 6087   0.764   6.118   3.056 -0.7628 -0.0642  2.3357
  321EMI     H5 6088   0.961   6.242   2.928  1.2945 -0.5297  0.0962
  321EMI    C1' 6089   0.560   6.020   2.889 -0.0925 -0.4036  0.7684
  321EMI    H1' 6090   0.482   6.077   2.941 -0.1776 -1.3586  0.5116
  321EMI    H1' 6091   0.507   5.981   2.801  0.5909 -1.4201 -1.8605
  321EMI    H1' 6092   0.592   5.944   2.964 -0.7760  0.5761  1.7422
  321EMI    C1" 6093   0.932   6.272   2.652 -0.2775 -0.7400 -0.0251
  321EMI    H1" 6094   0.999   6.339   2.711 -3.1622 -0.7612  1.2983
  321EMI    H1" 6095   0.870   6.328   2.583 -3.1795  0.5831 -1.0596
  321EMI    C2" 6096   1.015   6.176   2.565  0.5611 -0.5286 -0.3559
  321EMI    H2" 6097   0.943   6.116   2.514  1.1304  1.4689  1.0467
  321EMI    H2" 6098   1.077   6.240   2.502 -1.3218  1.6953  2.7464
  321EMI    H2" 6099   1.074   6.117   2.630  0.8352 -0.6721 -1.2365
  322EMI     N1 6100   3.912   3.670   5.984  0.8037  0.1860 -0.4755
  322EMI     C2 6101   3.846   3.694   5.871  0.5467  0.5295 -0.8556
  322EMI     N3 6102   3.813   3.580   5.819 -0.4911  0.5515 -0.4707
  322EMI     C4 6103   3.842   3.477   5.909  0.6567 -0.2266 -0.2136
  322EMI     C5 6104   3.908   3.532   6.007  0.2190  0.4863  0.0671
  322EMI     H2 6105   3.838   3.787   5.824 -0.7627 -2.5601  0.3412
  322EMI     H4 6106   3.818   3.370   5.898 -0.9628  0.7856  3.0160
  322EMI     H5 6107   3.951   3.475   6.087 -2.0356  2.2692 -0.9148
  322EMI    C1' 6108   3.734   3.557   5.701 -0.7392  0.3643  0.0780
  322EMI    H1' 6109   3.648   3.498   5.729  2.9228  2.3227  1.3199
  322EMI    H1' 6110   3.691   3.650   5.653  0.2145  0.1956  1.5535
  322EMI    H1' 6111   3.785   3.504   5.620 -0.5726 -1.4899 -1.4775
  322EMI    C1" 6112   3.954   3.769   6.089  0.4201 -0.0587  0.0963
  322EMI    H1" 6113   4.062   3.779   6.067 -0.1071 -0.8843 -1.4030
  322EMI    H1" 6114   3.943   3.722   6.190 -0.4747 -1.3453 -0.3437
  322EMI    C2" 6115   3.877   3.910   6.091 -0.3312  0.6219  0.8777
  322EMI    H2" 6116   3.922   3.968   6.009  0.6162  1.7604 -2.1455
  322EMI    H2" 6117   3.775   3.894   6.073  1.8848  2.2053 -0.4248
  322EMI    H2" 6118   3.886   3.961   6.188  2.5927  1.3316 -1.9799
  323EMI     N1 6119   6.414   4.018   5.745  0.0482 -0.4543  0.0508
  323EMI     C2 6120   6.379   4.001   5.871 -0.0893  0.7682 -0.5575
  323EMI     N3 6121   6.304   3.892   5.882 -0.1341 -0.1027  0.4080
  323EMI     C4 6122   6.269   3.847   5.761 -0.4210  0.1522 -0.3048
  323EMI     C5 6123   6.348   3.921   5.673  0.5459  0.4268  0.4553
  323EMI     H2 6124   6.418   4.053   5.957  0.2098 -0.5740 -0.2155
  323EMI     H4 6125   6.198   3.778   5.735  0.8621  0.9249 -0.1321
  323EMI     H5 6126   6.332   3.912   5.570 -1.5109 -2.4879  0.3254
  323EMI    C1' 6127   6.259   3.818   6.001  0.2178  0.5778  0.6182
  323EMI    H1' 6128   6.151   3.808   6.003  0.7344 -0.0247  0.2776
  323EMI    H1' 6129   6.301   3.719   6.002 -0.7782  2.8469 -0.3688
  323EMI    H1' 6130   6.286   3.875   6.091 -0.3932  1.9694 -0.0422
  323EMI    C1" 6131   6.504   4.111   5.679 -0.0680 -0.2072 -0.0765
  323EMI    H1" 6132   6.542   4.181   5.764 -1.1906  1.2426  1.3301
  323EMI    H1" 6133   6.453   4.177   5.607  0.3796  1.2551 -1.7678
  323EMI    C2" 6134   6.614   4.043   5.601  0.1275 -1.0797  0.1060
  323EMI    H2" 6135   6.566   3.977   5.523  2.7781  0.8843  1.5120
  323EMI    H2" 6136   6.672   4.121   5.537 -1.7747  3.0010  0.3279
  323EMI    H2" 6137   6.676   3.978   5.664  0.0961 -0.4925  0.0997
  324EMI     N1 6138   5.195   0.157   2.466  0.5686 -0.1009  0.4777
  324EMI     C2 6139   5.285   0.101   2.383  0.0038 -0.0653 -0.4219
  324EMI     N3 6140   5.413   0.136   2.416  0.1100 -0.4170  0.2513
  324EMI     C4 6141   5.396   0.225   2.521 -0.6335  0.5117 -0.1292
  324EMI     C5 6142   5.266   0.240   2.551 -0.3554  0.0477  0.2568
  324EMI     H2 6143   5.264   0.018   2.320 -0.0164 -1.5568 -0.6018
  324EMI     H4 6144   5.474   0.267   2.579 -1.1922 -1.1623  1.0373
  324EMI     H5 6145   5.225   0.282   2.641 -0.8963  0.2439  0.3499
  324EMI    C1' 6146   5.546   0.094   2.360  0.0772  0.3176  0.4165
  324EMI    H1' 6147   5.630   0.162   2.370 -0.8381  2.7098 -1.5175
  324EMI    H1' 6148   5.564  -0.003   2.403  0.0789  3.6556  0.7451
  324EMI    H1' 6149   5.536   0.069   2.254  2.7442 -2.5699  0.0838
  324EMI    C1" 6150   5.044   0.162   2.464 -0.1105  0.1774  0.4003
  324EMI    H1" 6151   5.018   0.153   2.569 -1.2749 -1.3176  2.9159
  324EMI    H1" 6152   5.002   0.077   2.407  0.5726 -1.9834 -2.1363
  324EMI    C2" 6153   4.993   0.282   2.408 -0.3071 -0.0050  0.1245
  324EMI    H2" 6154   4.902   0.304   2.463 -0.5597 -1.1116  1.6934
  324EMI    H2" 6155   5.061   0.355   2.431  0.2608 -0.8536  1.0381
  324EMI    H2" 6156   4.982   0.272   2.301  0.0378 -0.3019  2.0431
  325EMI     N1 6157   1.061   0.371   3.376 -0.0455 -0.2463  0.2228
  325EMI     C2 6158   0.972   0.469   3.340  0.0579 -0.3799  0.0753
  325EMI     N3 6159   1.004   0.586   3.402 -0.0422 -0.1360  0.1925
  325EMI     C4 6160   1.119   0.561   3.473 -0.0513 -0.4036 -0.2806
  325EMI     C5 6161   1.152   0.430   3.462  0.5072 -0.0586 -0.3626
  325EMI     H2 6162   0.886   0.461   3.268 -1.8069  0.9330 -3.4853
  325EMI     H4 6163   1.185   0.638   3.525  1.1393  0.3064 -0.2031
  325EMI     H5 6164   1.240   0.385   3.504  1.8328 -0.7474 -0.8699
  325EMI    C1' 6165   0.955   0.719   3.389  0.2747 -0.2046  0.4125
  325EMI    H1' 6166   0.860   0.711   3.340 -3.2055  0.5238  0.4235
  325EMI    H1' 6167   0.930   0.768   3.484  0.4141 -1.7548 -1.6159
  325EMI    H1' 6168   1.021   0.780   3.327  0.0060  0.6352  0.1974
  325EMI    C1" 6169   1.057   0.227   3.344  0.5100 -0.4433 -0.6065
  325EMI    H1" 6170   0.945   0.200   3.321 -0.2984  0.4157 -0.1217
  325EMI    H1" 6171   1.093   0.161   3.430  1.8334 -1.8159  0.0784
  325EMI    C2" 6172   1.139   0.200   3.216 -0.0535 -0.2762  0.8796
  325EMI    H2" 6173   1.229   0.261   3.210 -2.0966  1.8300  2.5615
  325EMI    H2" 6174   1.171   0.093   3.208 -0.6207  1.5242  1.3489
  325EMI    H2" 6175   1.084   0.243   3.127 -1.3658  1.2990 -1.6592
  326EMI     N1 6176   1.780   1.324   6.296  0.1269  0.2981 -0.3602
  326EMI     C2 6177   1.822   1.323   6.425  0.6358 -0.3483  0.8986
  326EMI     N3 6178   1.954   1.350   6.428 -0.5441 -0.2316 -0.0879
  326EMI     C4 6179   1.998   1.371   6.298  0.3402  0.4119  0.2037
  326EMI     C5 6180   1.892   1.349   6.217  0.3501 -0.0868  0.4098
  326EMI     H2 6181   1.757   1.299   6.509  1.1460  1.1292  0.2264
  326EMI     H4 6182   2.099   1.384   6.268 -1.0889 -0.6505 -2.3695
  326EMI     H5 6183   1.897   1.340   6.105  1.4919 -0.0435  1.4412
  326EMI    C1' 6184   2.045   1.355   6.536 -0.2037  0.0973  0.0888
  326EMI    H1' 6185   2.016   1.445   6.594  1.0646 -0.7901  0.8314
  326EMI    H1' 6186   2.039   1.270   6.597 -0.7546  1.3766 -4.3709
  326EMI    H1' 6187   2.146   1.370   6.500 -0.9632 -0.3361  0.6030
  326EMI    C1" 6188   1.647   1.302   6.229  0.0777  0.1186 -0.5095
  326EMI    H1" 6189   1.620   1.197   6.240  0.3680 -0.3715  0.5865
  326EMI    H1" 6190   1.669   1.326   6.125 -0.9653 -0.2741  0.8645
  326EMI    C2" 6191   1.548   1.409   6.284 -0.6274 -0.3938  0.2134
  326EMI    H2" 6192   1.445   1.386   6.243 -0.8266  0.0804 -1.0179
  326EMI    H2" 6193   1.562   1.415   6.393 -1.3406 -1.2582 -1.4009
  326EMI    H2" 6194   1.588   1.502   6.249  0.6962 -2.2819 -0.3005
  327EMI     N1 6195   1.127   1.691   0.806  0.2493 -0.3321 -0.2832
  327EMI     C2 6196   1.197   1.583   0.778 -0.1965  0.0303  0.0992
  327EMI     N3 6197   1.167   1.485   0.864 -0.4756 -0.0193  0.0981
  327EMI     C4 6198   1.068   1.529   0.947 -0.2346 -0.0908 -0.0224
  327EMI     C5 6199   1.048   1.657   0.915 -0.4205  0.5296 -0.1220
  327EMI     H2 6200   1.268   1.565   0.696 -2.7763 -1.9159 -0.3821
  327EMI     H4 6201   1.027   1.469   1.030 -0.3494  0.3305 -1.3098
  327EMI     H5 6202   0.982   1.730   0.963 -0.5077 -3.1503 -1.7777
  327EMI    C1' 6203   1.208   1.339   0.852 -0.7955 -0.0697  0.7838
  327EMI    H1' 6204   1.120   1.290   0.883  1.9786  0.2188 -1.4572
  327EMI    H1' 6205   1.215   1.316   0.746  0.9249  2.0325  1.4224
  327EMI    H1' 6206   1.304   1.321   0.911 -0.4962 -0.2269  2.4176
  327EMI    C1" 6207   1.130   1.820   0.730  0.6127 -0.3776 -1.2453
  327EMI    H1" 6208   1.036   1.878   0.741 -1.0190  0.5311  1.4647
  327EMI    H1" 6209   1.148   1.812   0.620  3.7315  0.3277 -1.2933
  327EMI    C2" 6210   1.227   1.928   0.789  1.0130 -0.0467  0.5143
  327EMI    H2" 6211   1.327   1.884   0.797  3.1463  1.1200  0.0716
  327EMI    H2" 6212   1.220   2.018   0.738 -1.9496  3.1955  0.0276
  327EMI    H2" 6213   1.199   1.946   0.902 -3.0102  1.0789  1.5689
  328EMI     N1 6214   0.846   5.502   6.431  0.5732 -0.1180 -0.3425
  328EMI     C2 6215   0.785   5.603   6.365 -0.1078 -0.5155 -0.0623
  328EMI     N3 6216   0.662   5.555   6.333  0.0518 -0.5393  0.7544
  328EMI     C4 6217   0.649   5.422   6.373  0.1778 -0.2363 -0.3897
  328EMI     C5 6218   0.769   5.390   6.436  0.7201 -0.4408 -0.2355
  328EMI     H2 6219   0.829   5.695   6.336  3.8360  0.5540  2.4319
  328EMI     H4 6220   0.561   5.362   6.343  0.2527  2.2950  1.2752
  328EMI     H5 6221   0.805   5.296   6.465 -0.6095 -0.2372  0.2455
  328EMI    C1' 6222   0.561   5.621   6.248 -0.4152  0.0934 -0.1791
  328EMI    H1' 6223   0.554   5.571   6.158  0.7388 -0.8592 -0.7675
  328EMI    H1' 6224   0.462   5.610   6.293  0.2180  2.8990  0.0787
  328EMI    H1' 6225   0.575   5.726   6.226 -0.5351 -2.5528 -0.3869
  328EMI    C1" 6226   0.985   5.502   6.471 -0.4495 -0.2023 -0.2241
  328EMI    H1" 6227   0.994   5.479   6.577 -0.1531 -1.7368 -0.7524
  328EMI    H1" 6228   1.036   5.598   6.451 -3.6170 -4.3014  1.0344
  328EMI    C2" 6229   1.061   5.389   6.388  0.2916  0.1206 -0.3834
  328EMI    H2" 6230   1.028   5.416   6.284  0.4866 -0.5326 -0.8717
  328EMI    H2" 6231   1.165   5.404   6.410  1.6146  0.7982  1.7418
  328EMI    H2" 6232   1.021   5.281   6.404 -1.4359  0.0058  1.3366
  329EMI     N1 6233   5.540   2.209   2.858  0.6511 -0.5639  0.2803
  329EMI     C2 6234   5.419   2.270   2.834 -0.1362 -0.5146  0.5385
  329EMI     N3 6235   5.335   2.234   2.932  0.2640 -0.7750  0.7374
  329EMI     C4 6236   5.404   2.157   3.023  0.6282  0.1748 -0.1578
  329EMI     C5 6237   5.532   2.146   2.977  0.7131 -0.3839  0.1369
  329EMI     H2 6238   5.397   2.326   2.746  0.0952 -0.1838 -0.4789
  329EMI     H4 6239   5.360   2.112   3.110 -1.2161  0.0523  0.1354
  329EMI     H5 6240   5.607   2.089   3.020 -1.0675 -1.1675  2.1684
  329EMI    C1' 6241   5.195   2.263   2.951  0.3390 -1.0656 -0.2848
  329EMI    H1' 6242   5.172   2.371   2.962 -3.5773  0.7220 -1.1509
  329EMI    H1' 6243   5.141   2.231   2.867  2.1919  0.0423  0.4304
  329EMI    H1' 6244   5.147   2.202   3.026  0.9093  0.4982 -0.5379
  329EMI    C1" 6245   5.661   2.198   2.778 -0.3414 -0.1546 -0.3208
  329EMI    H1" 6246   5.728   2.118   2.817  0.4591  0.1332 -0.9998
  329EMI    H1" 6247   5.718   2.294   2.797 -0.1958 -1.4272 -0.8944
  329EMI    C2" 6248   5.632   2.161   2.632 -0.1399 -0.6927  0.1316
  329EMI    H2" 6249   5.566   2.230   2.584 -1.0552 -0.9373  0.5887
  329EMI    H2" 6250   5.727   2.154   2.576 -1.7848  1.2244  0.2890
  329EMI    H2" 6251   5.587   2.064   2.614  0.3398  0.4430 -2.9124
  330EMI     N1 6252   0.586   2.696   1.082 -1.2528 -0.3718  0.0870
  330EMI     C2 6253   0.702   2.713   1.148 -0.5238 -0.0797 -0.6275
  330EMI     N3 6254   0.687   2.668   1.271 -0.2779  0.0400 -0.5626
  330EMI     C4 6255   0.555   2.625   1.288 -1.0997  0.0248 -0.1700
  330EMI     C5 6256   0.495   2.644   1.175 -0.1250  0.2050  0.4668
  330EMI     H2 6257   0.797   2.750   1.100 -2.6326 -2.1430  0.2378
  330EMI     H4 6258   0.515   2.594   1.383 -2.8423 -1.4466 -1.7202
  330EMI     H5 6259   0.391   2.623   1.151  0.9558 -0.0590 -0.1733
  330EMI    C1' 6260   0.779   2.670   1.386 -0.5829 -0.4946  0.7317
  330EMI    H1' 6261   0.810   2.569   1.422  2.1025  0.9699 -1.0823
  330EMI    H1' 6262   0.863   2.735   1.356 -0.8836  2.3169 -1.0435
  330EMI    H1' 6263   0.730   2.725   1.465 -0.6599  0.0509  0.1156
  330EMI    C1" 6264   0.541   2.722   0.941  0.6306  0.7334  0.8777
  330EMI    H1" 6265   0.440   2.695   0.926  0.6200  0.9056 -0.1193
  330EMI    H1" 6266   0.609   2.666   0.876  0.8652 -1.9378  3.1405
  330EMI    C2" 6267   0.543   2.871   0.916  0.4353 -0.0279  0.1097
  330EMI    H2" 6268   0.644   2.901   0.896 -1.0243  1.4161 -2.1091
  330EMI    H2" 6269   0.479   2.887   0.830  1.2686 -0.3005  0.3184
  330EMI    H2" 6270   0.509   2.921   1.005  0.2978  0.2713  1.7205
  331EMI     N1 6271   5.644   0.288   2.999 -0.1703  0.1551  0.2791
  331EMI     C2 6272   5.701   0.321   3.116  0.5981 -0.1281  0.3729
  331EMI     N3 6273   5.760   0.446   3.104  0.0621  0.7143  0.5532
  331EMI     C4 6274   5.726   0.495   2.983 -0.3877  0.2013  0.3690
  331EMI     C5 6275   5.661   0.395   2.915 -0.2861 -0.2387  0.2323
  331EMI     H2 6276   5.700   0.266   3.211 -0.3288  2.8045 -0.0040
  331EMI     H4 6277   5.769   0.580   2.938 -1.7092  0.6356 -1.0565
  331EMI     H5 6278   5.632   0.390   2.814 -1.2290  0.8537 -1.1301
  331EMI    C1' 6279   5.839   0.520   3.205  0.0955 -0.7312 -0.0902
  331EMI    H1' 6280   5.860   0.453   3.282 -1.7111  0.3870 -2.4509
  331EMI    H1' 6281   5.926   0.550   3.153 -2.3431  4.1798  3.7502
  331EMI    H1' 6282   5.785   0.604   3.248  1.3711  1.0577 -0.7675
  331EMI    C1" 6283   5.580   0.163   2.944  0.3355 -0.5198 -0.5694
  331EMI    H1" 6284   5.543   0.169   2.844 -1.1298  3.0479 -1.2157
  331EMI    H1" 6285   5.492   0.154   3.006 -1.0126  0.5754 -0.8406
  331EMI    C2" 6286   5.657   0.033   2.957  0.6333 -0.2589 -0.4270
  331EMI    H2" 6287   5.730   0.026   2.873  1.4917  0.9232  1.8193
  331EMI    H2" 6288   5.715   0.030   3.052  2.7446  0.0469  0.7090
  331EMI    H2" 6289   5.585  -0.052   2.956  0.0196  0.6925 -0.7027
  332EMI     N1 6290   5.328   0.656   1.882 -0.0092 -0.0384  0.0307
  332EMI     C2 6291   5.449   0.598   1.886  0.3252 -0.6693 -0.5649
  332EMI     N3 6292   5.536   0.694   1.923  0.1597  0.4229  0.1916
  332EMI     C4 6293   5.463   0.811   1.943  0.0950  0.3244 -0.5610
  332EMI     C5 6294   5.334   0.783   1.923 -0.1378 -0.1820 -0.7531
  332EMI     H2 6295   5.472   0.500   1.843 -0.7603 -0.2236  1.6401
  332EMI     H4 6296   5.519   0.904   1.969 -0.1325  1.1613 -1.3161
  332EMI     H5 6297   5.261   0.858   1.927  0.2455  0.2006 -2.0379
  332EMI    C1' 6298   5.674   0.676   1.964  0.0562  0.2424 -0.4058
  332EMI    H1' 6299   5.676   0.671   2.076  1.4660  2.2064 -0.2428
  332EMI    H1' 6300   5.716   0.586   1.926 -1.8368  1.0383 -1.0204
  332EMI    H1' 6301   5.740   0.757   1.922 -1.1110  0.3280 -1.7556
  332EMI    C1" 6302   5.203   0.588   1.844  0.2680 -0.5084  0.5165
  332EMI    H1" 6303   5.151   0.564   1.936  0.5031  1.6531  1.1537
  332EMI    H1" 6304   5.227   0.484   1.796  3.2801 -2.4438 -0.9049
  332EMI    C2" 6305   5.122   0.680   1.753  0.0092  0.3680  0.6950
  332EMI    H2" 6306   5.061   0.762   1.798 -3.2024 -0.3501  0.6951
  332EMI    H2" 6307   5.185   0.719   1.678  1.5062 -1.4404  4.2241
  332EMI    H2" 6308   5.047   0.624   1.702  0.5777  1.4910  3.4309
  333EMI     N1 6309   3.183   3.371   2.429 -0.1424 -0.4746 -0.0101
  333EMI     C2 6310   3.088   3.327   2.516  0.6081  0.8789 -0.2806
  333EMI     N3 6311   3.118   3.206   2.564 -0.6313 -0.0840 -0.2768
  333EMI     C4 6312   3.234   3.165   2.502 -0.7752 -0.4887 -0.1774
  333EMI     C5 6313   3.276   3.263   2.414  0.0307  0.7353  0.3302
  333EMI     H2 6314   3.013   3.392   2.560  0.8392 -0.1095  0.4116
  333EMI     H4 6315   3.298   3.072   2.515 -1.3345  1.5855 -0.7758
  333EMI     H5 6316   3.361   3.268   2.352 -0.3702  3.0565  1.6551
  333EMI    C1' 6317   3.060   3.134   2.673  0.3769 -0.0706  0.5974
  333EMI    H1' 6318   3.079   3.024   2.670  1.6414  0.7728  0.2504
  333EMI    H1' 6319   3.103   3.174   2.764 -0.8732  0.5778 -0.8406
  333EMI    H1' 6320   2.956   3.143   2.695 -0.0306 -2.6647  1.7470
  333EMI    C1" 6321   3.195   3.505   2.372 -0.5662  0.4119  0.2197
  333EMI    H1" 6322   3.292   3.514   2.320  1.1140  1.3030 -0.3280
  333EMI    H1" 6323   3.206   3.574   2.455 -0.1578 -2.0147  2.6611
  333EMI    C2" 6324   3.074   3.535   2.285 -0.2480 -0.2682 -0.1767
  333EMI    H2" 6325   2.990   3.534   2.355 -1.6987  1.6783 -1.0561
  333EMI    H2" 6326   3.067   3.632   2.241  0.7439 -1.3571  1.4905
  333EMI    H2" 6327   3.056   3.459   2.212 -0.0002 -1.1143 -0.6237
  334EMI     N1 6328   1.585   2.063   6.098 -0.1597 -0.2537 -0.2734
  334EMI     C2 6329   1.585   2.084   5.963  0.0822 -0.2813  0.1142
  334EMI     N3 6330   1.581   1.963   5.905  0.4804 -0.2481 -0.0173
  334EMI     C4 6331   1.581   1.867   6.001  0.3854  0.0287 -0.4173
  334EMI     C5 6332   1.572   1.931   6.116  0.5846 -0.4919 -0.5180
  334EMI     H2 6333   1.596   2.181   5.921 -0.3539 -0.3418 -0.0013
  334EMI     H4 6334   1.605   1.760   5.982  1.9070  0.7372 -1.8870
  334EMI     H5 6335   1.587   1.879   6.216  1.0615  0.1264 -0.8368
  334EMI    C1' 6336   1.596   1.929   5.760  0.4613  0.4243 -0.6982
  334EMI    H1' 6337   1.519   1.858   5.748  0.4205  1.1503  1.6685
  334EMI    H1' 6338   1.577   2.019   5.694  0.0923 -0.0619 -1.3902
  334EMI    H1' 6339   1.690   1.886   5.740  1.3161  2.8187 -0.9972
  334EMI    C1" 6340   1.602   2.158   6.214 -0.2467 -0.4018  0.0557
  334EMI    H1" 6341   1.673   2.232   6.186 -0.3821 -0.0481 -2.0003
  334EMI    H1" 6342   1.634   2.101   6.298 -1.2068 -2.5794 -1.9454
  334EMI    C2" 6343   1.474   2.236   6.245  0.9786  0.1923 -0.1887
  334EMI    H2" 6344   1.441   2.278   6.153 -1.0879 -5.1204 -0.2751
  334EMI    H2" 6345   1.391   2.178   6.294 -1.9397 -0.1430 -1.1866
  334EMI    H2" 6346   1.506   2.309   6.325  0.7223  2.0519  2.6369
  335EMI     N1 6347   6.215   2.765   2.621 -0.0163 -0.6058 -0.1926
  335EMI     C2 6348   6.121   2.838   2.561  0.5882 -0.5249  0.6008
  335EMI     N3 6349   6.097   2.793   2.435 -0.0673  0.2995  0.0975
  335EMI     C4 6350   6.181   2.685   2.417  0.0446 -0.1731  0.3368
  335EMI     C5 6351   6.256   2.671   2.528 -0.5123  0.1701 -0.3043
  335EMI     H2 6352   6.062   2.914   2.617 -1.7734 -0.2021 -0.4379
  335EMI     H4 6353   6.191   2.624   2.331  2.3577 -0.7816  0.9796
  335EMI     H5 6354   6.333   2.594   2.546 -0.1900 -1.4824 -0.5782
  335EMI    C1' 6355   5.994   2.823   2.324 -0.0396 -0.0115 -0.1849
  335EMI    H1' 6356   6.047   2.817   2.228 -1.0723 -3.2055 -1.3038
  335EMI    H1' 6357   5.923   2.739   2.320 -0.9247  1.8311 -0.5750
  335EMI    H1' 6358   5.948   2.918   2.354  1.4389  0.7740  0.2183
  335EMI    C1" 6359   6.281   2.790   2.749  0.0971 -0.0196  0.1655
  335EMI    H1" 6360   6.367   2.856   2.739 -0.2481 -0.2221  1.5414
  335EMI    H1" 6361   6.308   2.694   2.791 -2.9657 -1.5547 -3.2411
  335EMI    C2" 6362   6.194   2.882   2.839  0.1494 -0.0354  0.0992
  335EMI    H2" 6363   6.092   2.840   2.849 -2.0502 -2.7142 -2.5164
  335EMI    H2" 6364   6.236   2.908   2.933 -0.4589  2.5417  1.6570
  335EMI    H2" 6365   6.168   2.974   2.788 -2.6670  0.3544 -1.2701
  336EMI     N1 6366   2.484   1.207   5.920  0.4292  0.0582  0.0816
  336EMI     C2 6367   2.529   1.175   6.044  0.2459 -0.2968  0.3383
  336EMI     N3 6368   2.647   1.115   6.034  0.3183 -0.3690 -0.4827
  336EMI     C4 6369   2.683   1.114   5.899 -0.0311 -0.2000  0.8773
  336EMI     C5 6370   2.582   1.170   5.827 -0.0622 -0.3193  0.2357
  336EMI     H2 6371   2.469   1.178   6.134 -0.2910  1.2269  2.0767
  336EMI     H4 6372   2.770   1.073   5.852 -2.0205  2.7524  1.8961
  336EMI     H5 6373   2.586   1.194   5.722 -0.0965 -3.0211 -2.0396
  336EMI    C1' 6374   2.741   1.058   6.135 -0.6590 -0.1800  0.3379
  336EMI    H1' 6375   2.758   1.129   6.216 -3.0440  1.8180 -1.9297
  336EMI    H1' 6376   2.693   0.967   6.172 -1.0408  0.9911 -0.6767
  336EMI    H1' 6377   2.839   1.032   6.099  1.7054  0.7341 -2.2706
  336EMI    C1" 6378   2.353   1.254   5.890  0.6236  0.2179 -0.6162
  336EMI    H1" 6379   2.302   1.273   5.980  0.3193 -1.8742 -0.8228
  336EMI    H1" 6380   2.301   1.194   5.820 -1.5686  2.3887 -0.5542
  336EMI    C2" 6381   2.369   1.383   5.821 -0.2550 -0.0192 -0.5537
  336EMI    H2" 6382   2.390   1.361   5.721  0.9364  0.7388  0.8331
  336EMI    H2" 6383   2.271   1.436   5.827  1.4595  0.0657  0.8678
  336EMI    H2" 6384   2.452   1.445   5.853  0.2089  0.7114 -2.3822
  337EMI     N1 6385   2.245   1.983   4.435  0.0474  0.0498 -0.2724
  337EMI     C2 6386   2.311   1.974   4.549 -0.3320  0.2149  0.2524
  337EMI     N3 6387   2.244   1.901   4.642 -0.1579 -0.2660 -0.4607
  337EMI     C4 6388   2.124   1.861   4.578 -0.1702  0.6356  0.3587
  337EMI     C5 6389   2.124   1.920   4.451 -0.7753  0.4215 -0.2030
  337EMI     H2 6390   2.402   2.027   4.580 -3.6049  2.9133 -1.0959
  337EMI     H4 6391   2.042   1.807   4.614 -0.3075  0.2637 -1.6669
  337EMI     H5 6392   2.038   1.911   4.383 -0.9542 -0.5323  3.3749
  337EMI    C1' 6393   2.293   1.854   4.773  0.2921 -0.5819 -0.0725
  337EMI    H1' 6394   2.337   1.756   4.770  0.1914 -0.1188 -2.3342
  337EMI    H1' 6395   2.370   1.925   4.812  1.8715  1.0516  0.8938
  337EMI    H1' 6396   2.200   1.849   4.835  0.5902 -1.5734 -1.3255
  337EMI    C1" 6397   2.285   2.063   4.316 -0.1227 -0.2725  0.6286
  337EMI    H1" 6398   2.337   2.156   4.346  0.4201  1.0451 -1.5819
  337EMI    H1" 6399   2.199   2.095   4.252 -0.6263 -1.2002  0.1756
  337EMI    C2" 6400   2.376   1.985   4.224  0.5767  0.2416 -0.2538
  337EMI    H2" 6401   2.316   1.914   4.168 -0.8472  0.2446  0.7666
  337EMI    H2" 6402   2.423   2.061   4.154  0.3949  2.2512 -0.6955
  337EMI    H2" 6403   2.451   1.929   4.284 -2.9162  1.6361 -1.5288
  338EMI     N1 6404   3.348   1.880   3.638  0.3571 -0.3085 -0.0464
  338EMI     C2 6405   3.239   1.830   3.699 -0.4267  0.0548  0.0452
  338EMI     N3 6406   3.195   1.713   3.642  0.2175  0.9940 -0.1726
  338EMI     C4 6407   3.291   1.677   3.550  0.4725 -0.6624  0.0981
  338EMI     C5 6408   3.378   1.780   3.542  0.3875  0.4390 -0.3841
  338EMI     H2 6409   3.197   1.878   3.789 -0.6311  0.7920 -2.2652
  338EMI     H4 6410   3.292   1.589   3.487  0.3344  0.0320 -1.6175
  338EMI     H5 6411   3.465   1.786   3.475 -0.8193 -0.2123 -0.0931
  338EMI    C1' 6412   3.079   1.629   3.676  0.3024 -0.0718 -1.0289
  338EMI    H1' 6413   2.991   1.639   3.619  1.4008 -0.8152 -1.6752
  338EMI    H1' 6414   3.113   1.526   3.679  1.4038  0.4134 -2.1181
  338EMI    H1' 6415   3.047   1.652   3.782 -1.0406 -2.1766  2.1263
  338EMI    C1" 6416   3.432   2.000   3.674  0.2438  0.4536  0.7380
  338EMI    H1" 6417   3.504   2.013   3.587  0.6209  0.0026  0.9226
  338EMI    H1" 6418   3.476   1.973   3.766 -0.6918 -1.7031 -2.1303
  338EMI    C2" 6419   3.349   2.130   3.700  0.5714 -0.6153 -0.0998
  338EMI    H2" 6420   3.401   2.193   3.780  2.9122  0.2544 -2.3481
  338EMI    H2" 6421   3.359   2.196   3.616 -0.7658  0.2708  0.6800
  338EMI    H2" 6422   3.242   2.123   3.745 -4.4289 -2.1273  2.3345
  339EMI     N1 6423   2.082   1.134   5.261  0.3106  0.7906 -0.3444
  339EMI     C2 6424   2.166   1.205   5.338  0.3124  0.3604 -0.4049
  339EMI     N3 6425   2.098   1.238   5.451  0.1544 -0.2793  0.9246
  339EMI     C4 6426   1.967   1.190   5.439 -0.5473 -0.4714 -0.2332
  339EMI     C5 6427   1.963   1.115   5.323  0.4357 -0.4581 -0.5164
  339EMI     H2 6428   2.268   1.225   5.308  1.4440 -0.2358  0.6124
  339EMI     H4 6429   1.892   1.201   5.518  0.7777 -0.2684 -1.2089
  339EMI     H5 6430   1.880   1.055   5.281 -0.7731  0.7759 -0.1138
  339EMI    C1' 6431   2.145   1.296   5.580  1.0044 -0.8307  0.3799
  339EMI    H1' 6432   2.224   1.230   5.619 -3.3675 -1.8085 -0.3833
  339EMI    H1' 6433   2.180   1.402   5.571  1.6802 -0.1550  2.0186
  339EMI    H1' 6434   2.058   1.301   5.650  0.9251 -0.8486 -0.3138
  339EMI    C1" 6435   2.099   1.062   5.129  0.1139 -0.6040 -0.2068
  339EMI    H1" 6436   2.000   1.012   5.097  2.0042 -0.2214  1.2021
  339EMI    H1" 6437   2.178   0.992   5.147 -0.4705  3.2171  0.4886
  339EMI    C2" 6438   2.141   1.164   5.023 -0.0785 -0.2271  0.0787
  339EMI    H2" 6439   2.236   1.205   5.055 -1.3747  0.3376  3.1875
  339EMI    H2" 6440   2.146   1.117   4.920 -0.8818 -1.1105 -0.6206
  339EMI    H2" 6441   2.064   1.242   5.020 -1.5966 -1.4216  1.5697
  340EMI     N1 6442   2.579   4.359   4.723  0.3552 -0.5885  0.2241
  340EMI     C2 6443   2.526   4.321   4.607  0.9300  0.0193  0.4230
  340EMI     N3 6444   2.390   4.335   4.608  0.6282 -0.6834 -0.7925
  340EMI     C4 6445   2.367   4.390   4.734  0.3638 -0.0850 -0.6965
  340EMI     C5 6446   2.477   4.403   4.803  0.3083  0.3791  0.6976
  340EMI     H2 6447   2.584   4.299   4.519 -0.4998  0.6224  0.4198
  340EMI     H4 6448   2.262   4.413   4.763 -2.4859 -2.3185  2.8015
  340EMI     H5 6449   2.490   4.432   4.907 -0.2546  1.9191 -1.7784
  340EMI    C1' 6450   2.301   4.331   4.502  0.1592  0.5353  0.6409
  340EMI    H1' 6451   2.196   4.363   4.533 -0.5683  0.6338  0.6745
  340EMI    H1' 6452   2.329   4.405   4.428 -1.5913  0.1244 -1.5687
  340EMI    H1' 6453   2.296   4.231   4.460  0.8152  1.6098  1.5166
  340EMI    C1" 6454   2.715   4.373   4.776  0.2082 -0.5500  0.1635
  340EMI    H1" 6455   2.711   4.325   4.877  2.7964 -1.2896  0.5450
  340EMI    H1" 6456   2.747   4.479   4.780  0.4215  2.8199 -0.4868
  340EMI    C2" 6457   2.809   4.294   4.688  0.3922 -0.2115 -0.3042
  340EMI    H2" 6458   2.914   4.299   4.730  0.6284  2.0368  3.2783
  340EMI    H2" 6459   2.773   4.196   4.662  0.9367  0.7652  0.4495
  340EMI    H2" 6460   2.804   4.344   4.591  0.2978  0.2402 -1.4689
  341EMI     N1 6461   5.016   3.744   2.061 -0.2523  0.1016 -0.3159
  341EMI     C2 6462   4.939   3.805   1.968  0.6847  0.9697 -0.2005
  341EMI     N3 6463   4.978   3.927   1.937  0.1209 -0.0993  0.1759
  341EMI     C4 6464   5.083   3.948   2.020  0.2130 -0.3874  0.5594
  341EMI     C5 6465   5.104   3.841   2.108 -0.0149 -0.3216 -0.1564
  341EMI     H2 6466   4.862   3.754   1.912 -0.5893  0.7136  2.3206
  341EMI     H4 6467   5.130   4.042   2.021 -0.8031  0.3154 -0.0652
  341EMI     H5 6468   5.189   3.826   2.172 -0.4740 -2.3489 -1.9066
  341EMI    C1' 6469   4.933   4.025   1.836 -0.3681 -0.2671  0.7270
  341EMI    H1' 6470   4.890   4.108   1.891 -1.5427 -0.5247 -0.3277
  341EMI    H1' 6471   5.020   4.070   1.779 -1.3935  0.0770  1.3873
  341EMI    H1' 6472   4.858   3.985   1.773  0.9681  0.5538 -0.7952
  341EMI    C1" 6473   5.024   3.602   2.100 -0.2457 -0.1295  0.2677
  341EMI    H1" 6474   4.952   3.585   2.175 -0.2462 -1.4450 -0.4874
  341EMI    H1" 6475   5.122   3.576   2.143  0.9410  0.3739 -1.3538
  341EMI    C2" 6476   4.988   3.512   1.979  0.7627 -0.0816  0.1722
  341EMI    H2" 6477   4.992   3.409   2.009 -0.4147  1.5717  0.8175
  341EMI    H2" 6478   4.898   3.545   1.935 -1.6533  0.2867  1.0091
  341EMI    H2" 6479   5.061   3.531   1.902  0.2358 -1.1757 -3.3889
  342EMI     N1 6480   4.005   0.157   0.528 -0.1467 -0.4098  0.8519
  342EMI     C2 6481   4.003   0.130   0.660 -0.2678  0.0661  0.6998
  342EMI     N3 6482   3.877   0.134   0.700  0.3059 -0.5567  0.7755
  342EMI     C4 6483   3.796   0.159   0.590  0.0143  0.3921 -0.3174
  342EMI     C5 6484   3.873   0.167   0.486  0.3843 -1.0112 -0.1095
  342EMI     H2 6485   4.087   0.124   0.730  0.8428  3.2246  1.0911
  342EMI     H4 6486   3.691   0.174   0.598  3.4990 -3.4780  2.9736
  342EMI     H5 6487   3.827   0.178   0.385  0.4125  0.8042  1.2946
  342EMI    C1' 6488   3.821   0.140   0.836 -0.2008  0.4804 -0.0303
  342EMI    H1' 6489   3.809   0.034   0.860 -0.8484  2.9873 -2.6005
  342EMI    H1' 6490   3.881   0.193   0.910 -0.1823  0.6490  1.6644
  342EMI    H1' 6491   3.714   0.177   0.834 -0.7961  1.7854 -0.6565
  342EMI    C1" 6492   4.120   0.177   0.430 -0.4189  0.1566 -0.4446
  342EMI    H1" 6493   4.198   0.241   0.484  1.4215 -0.2349 -0.6211
  342EMI    H1" 6494   4.090   0.232   0.342  1.6910  2.8312 -1.0178
  342EMI    C2" 6495   4.182   0.041   0.414 -0.2711 -0.0357  0.6683
  342EMI    H2" 6496   4.274   0.046   0.359  0.0403  0.1618  1.0538
  342EMI    H2" 6497   4.200   0.005   0.517 -0.0584 -0.8904  0.4873
  342EMI    H2" 6498   4.115  -0.032   0.374 -0.9992  0.4861 -0.2896
  343EMI     N1 6499   0.955   4.846   1.581 -0.3078 -0.0595  0.3117
  343EMI     C2 6500   0.900   4.885   1.696 -0.1948  0.4829 -0.3111
  343EMI     N3 6501   0.927   5.012   1.723 -0.0958 -0.5339  0.4131
  343EMI     C4 6502   0.998   5.055   1.615  0.6557  0.4827  0.1585
  343EMI     C5 6503   1.026   4.954   1.536 -0.0865 -0.2424 -0.3384
  343EMI     H2 6504   0.835   4.827   1.754 -3.9537  4.4444 -2.5876
  343EMI     H4 6505   1.034   5.155   1.607 -1.9972 -0.9632 -1.8422
  343EMI     H5 6506   1.083   4.953   1.440 -3.4854  1.1912 -0.5734
  343EMI    C1' 6507   0.893   5.095   1.836  1.2496 -0.0699 -0.0335
  343EMI    H1' 6508   0.831   5.176   1.791  1.6403 -0.7074 -0.4056
  343EMI    H1' 6509   0.827   5.041   1.901  0.4909 -3.0582 -0.6157
  343EMI    H1' 6510   0.981   5.146   1.884  1.4848  0.4781  1.7982
  343EMI    C1" 6511   0.955   4.720   1.511  0.0700 -0.1690 -0.0890
  343EMI    H1" 6512   0.956   4.645   1.589 -1.5893 -0.7980 -2.4644
  343EMI    H1" 6513   1.038   4.715   1.436  0.0855 -1.7303 -3.7237
  343EMI    C2" 6514   0.824   4.706   1.442  0.6156  0.1565  0.0548
  343EMI    H2" 6515   0.798   4.790   1.379 -2.1251 -0.1416  1.3689
  343EMI    H2" 6516   0.830   4.615   1.387 -0.7372 -2.2634 -1.3423
  343EMI    H2" 6517   0.754   4.702   1.528  0.6000  0.3023  2.9749
  344EMI     N1 6518   6.686   0.034   0.256  0.1753  0.7292  0.1206
  344EMI     C2 6519   6.589   0.048   0.349  0.0585  0.3792 -0.0881
  344EMI     N3 6520   6.506   0.141   0.311  0.4445 -0.5567  0.6516
  344EMI     C4 6521   6.546   0.188   0.188  0.6640 -0.7279  0.2000
  344EMI     C5 6522   6.660   0.120   0.158 -0.6535  0.5277 -0.4765
  344EMI     H2 6523   6.589  -0.004   0.443  0.8692 -0.1082  0.9724
  344EMI     H4 6524   6.500   0.268   0.135  1.0818  2.7004 -0.9915
  344EMI     H5 6525   6.709   0.137   0.063  0.8679  0.2752  0.8590
  344EMI    C1' 6526   6.390   0.200   0.384  0.3488 -0.3028 -0.0293
  344EMI    H1' 6527   6.419   0.248   0.476  1.9008  0.6501 -1.9580
  344EMI    H1' 6528   6.339   0.271   0.314  0.9744  0.3626 -1.5795
  344EMI    H1' 6529   6.321   0.119   0.402 -2.2790 -1.4398 -1.3884
  344EMI    C1" 6530   6.799  -0.061   0.256  0.1879 -0.0146  0.7002
  344EMI    H1" 6531   6.834  -0.069   0.357  0.3674  2.6200 -3.4775
  344EMI    H1" 6532   6.875  -0.014   0.198 -1.5677  0.3580  0.7791
  344EMI    C2" 6533   6.763  -0.200   0.201  0.0204  0.4815  0.0002
  344EMI    H2" 6534   6.757  -0.193   0.092  0.0441  1.2002 -0.5950
  344EMI    H2" 6535   6.838  -0.273   0.234 -0.8572  1.5356 -0.5708
  344EMI    H2" 6536   6.664  -0.234   0.240 -0.2714 -0.0364  0.8932
  345EMI     N1 6537   2.455   1.497   0.482  0.3838  0.6897 -0.1226
  345EMI     C2 6538   2.423   1.420   0.587 -0.7466  0.2193  0.2666
  345EMI     N3 6539   2.529   1.403   0.671 -0.6525 -0.7266 -0.4331
  345EMI     C4 6540   2.633   1.469   0.615 -0.3677  0.1523  0.2577
  345EMI     C5 6541   2.589   1.534   0.504 -0.1950 -0.6565 -0.1580
  345EMI     H2 6542   2.328   1.375   0.607 -2.2415 -1.4182  1.4198
  345EMI     H4 6543   2.730   1.482   0.667 -0.4235 -1.7840  0.5781
  345EMI     H5 6544   2.650   1.593   0.441 -0.9413  1.8894  2.7985
  345EMI    C1' 6545   2.544   1.325   0.791  0.0093 -0.2804  0.2635
  345EMI    H1' 6546   2.461   1.248   0.802 -3.9173 -1.7748  0.0084
  345EMI    H1' 6547   2.637   1.275   0.783 -0.2069 -0.0477 -2.7940
  345EMI    H1' 6548   2.560   1.384   0.875 -0.9653 -1.3390 -0.8309
  345EMI    C1" 6549   2.368   1.535   0.367 -0.3727 -0.9330  0.5112
  345EMI    H1" 6550   2.311   1.449   0.341  0.3466  2.4401 -0.7815
  345EMI    H1" 6551   2.433   1.528   0.272 -1.0033 -2.1634 -3.2797
  345EMI    C2" 6552   2.282   1.663   0.374 -0.0431  0.7450 -0.0289
  345EMI    H2" 6553   2.211   1.648   0.452 -0.4198  1.0840 -4.4009
  345EMI    H2" 6554   2.353   1.741   0.380  0.9911  1.8669  1.3403
  345EMI    H2" 6555   2.230   1.670   0.278 -1.1843 -0.6410 -2.4926
  346EMI     N1 6556   3.501   5.577   4.938  0.3461 -0.5110 -0.1777
  346EMI     C2 6557   3.424   5.518   5.031 -0.3808  0.4183  0.1006
  346EMI     N3 6558   3.295   5.561   5.029  0.2983  0.3452 -0.7248
  346EMI     C4 6559   3.290   5.649   4.926  0.1209 -0.1888 -0.2499
  346EMI     C5 6560   3.411   5.645   4.864 -0.1634  0.0930 -0.0478
  346EMI     H2 6561   3.456   5.435   5.090  1.7493  0.7471 -1.4378
  346EMI     H4 6562   3.203   5.691   4.885  1.1161 -1.3006  1.7523
  346EMI     H5 6563   3.425   5.700   4.766 -2.1713 -1.6080 -2.9839
  346EMI    C1' 6564   3.169   5.518   5.097 -0.4077  0.5401  0.2728
  346EMI    H1' 6565   3.182   5.456   5.186 -0.8482  0.3223 -1.2935
  346EMI    H1' 6566   3.121   5.611   5.131  1.8678  0.4989 -0.2735
  346EMI    H1' 6567   3.091   5.469   5.034  2.6876  0.0912  1.5464
  346EMI    C1" 6568   3.643   5.557   4.899 -0.4525  0.1637 -0.4832
  346EMI    H1" 6569   3.701   5.645   4.910  0.1247 -1.1629  2.6286
  346EMI    H1" 6570   3.651   5.537   4.795  2.2286  2.5514 -0.3533
  346EMI    C2" 6571   3.708   5.429   4.964  0.4848  0.1608 -0.2248
  346EMI    H2" 6572   3.636   5.346   4.965 -0.6177 -2.7821 -1.1537
  346EMI    H2" 6573   3.798   5.411   4.898 -1.3277 -1.0331 -0.6242
  346EMI    H2" 6574   3.730   5.456   5.067  3.9533  1.4106 -2.1205
  347EMI     N1 6575   4.502   1.394   2.315  0.0226 -0.3547 -0.4497
  347EMI     C2 6576   4.586   1.499   2.326  0.2101  0.0508 -0.1520
  347EMI     N3 6577   4.639   1.498   2.449  0.9093 -0.5572 -1.0004
  347EMI     C4 6578   4.590   1.388   2.519  0.4112 -0.1850 -0.0852
  347EMI     C5 6579   4.504   1.325   2.432 -0.3224 -0.4291  0.2404
  347EMI     H2 6580   4.617   1.568   2.252 -0.3619 -0.1358  0.6984
  347EMI     H4 6581   4.619   1.360   2.620 -3.6861  3.1761  1.9402
  347EMI     H5 6582   4.453   1.232   2.466 -1.5548 -1.9366 -2.1400
  347EMI    C1' 6583   4.745   1.580   2.515 -0.1633 -0.4963  0.8420
  347EMI    H1' 6584   4.845   1.539   2.481 -0.9187 -2.9526  2.9139
  347EMI    H1' 6585   4.738   1.682   2.493 -0.0470  0.7667 -0.0477
  347EMI    H1' 6586   4.746   1.590   2.620  0.6376  0.6030 -2.3550
  347EMI    C1" 6587   4.418   1.343   2.203  0.0548 -0.2112  0.5870
  347EMI    H1" 6588   4.320   1.368   2.225  1.9260 -2.8266  0.7713
  347EMI    H1" 6589   4.437   1.232   2.204  1.4430 -2.1090 -1.3581
  347EMI    C2" 6590   4.461   1.400   2.066 -0.2977 -0.5645 -0.4578
  347EMI    H2" 6591   4.467   1.509   2.079  1.7882 -0.1126  2.6930
  347EMI    H2" 6592   4.550   1.360   2.019 -3.4857  2.0117  0.0532
  347EMI    H2" 6593   4.382   1.375   1.994 -0.8074  0.6364  0.5996
  348EMI     N1 6594   6.042   6.644   3.283  0.0173 -0.4629 -0.0186
  348EMI     C2 6595   6.033   6.611   3.155  0.1941  0.1932 -0.1500
  348EMI     N3 6596   5.902   6.577   3.123 -0.0728  0.4686  0.0499
  348EMI     C4 6597   5.829   6.605   3.231 -0.2664  0.9094 -0.6527
  348EMI     C5 6598   5.910   6.649   3.334 -0.0169  0.1321  0.1436
  348EMI     H2 6599   6.110   6.604   3.086 -1.3379  2.6899  2.5313
  348EMI     H4 6600   5.719   6.602   3.239 -1.6846  1.2815  0.3196
  348EMI     H5 6601   5.884   6.688   3.429 -2.2578  0.9228 -1.6857
  348EMI    C1' 6602   5.843   6.536   2.993 -0.2847  0.0773 -0.3820
  348EMI    H1' 6603   5.854   6.615   2.922 -0.4038 -0.3185  1.0755
  348EMI    H1' 6604   5.890   6.455   2.944  0.3373  0.5629  1.0549
  348EMI    H1' 6605   5.736   6.524   2.998  1.7382 -0.1526 -0.7465
  348EMI    C1" 6606   6.154   6.707   3.360 -0.1930  0.8712  0.0171
  348EMI    H1" 6607   6.116   6.793   3.421 -1.0169  0.0334  1.7000
  348EMI    H1" 6608   6.236   6.743   3.294  2.7943  1.3200 -1.4469
  348EMI    C2" 6609   6.214   6.602   3.450 -0.6622 -0.6171 -0.0775
  348EMI    H2" 6610   6.278   6.531   3.396  0.8033 -0.4465 -1.1192
  348EMI    H2" 6611   6.275   6.633   3.530 -1.3869  0.5536 -0.0496
  348EMI    H2" 6612   6.132   6.555   3.500 -0.0970 -1.9440  3.9787
  349EMI     N1 6613   2.444   4.655   0.905  0.2338  0.5790  0.4330
  349EMI     C2 6614   2.406   4.705   0.787  0.0949 -0.1539 -0.3021
  349EMI     N3 6615   2.291   4.774   0.801  0.6475 -0.0145 -0.5288
  349EMI     C4 6616   2.248   4.755   0.930  0.3077  0.3094 -0.0221
  349EMI     C5 6617   2.339   4.676   0.992 -0.3792  0.7603  0.2117
  349EMI     H2 6618   2.477   4.698   0.699  1.0341 -1.9912  0.4448
  349EMI     H4 6619   2.154   4.788   0.976 -2.0672  0.2536 -0.5838
  349EMI     H5 6620   2.327   4.655   1.098 -1.4768  0.1843 -2.8755
  349EMI    C1' 6621   2.209   4.848   0.704  0.7940 -0.1389 -0.4701
  349EMI    H1' 6622   2.228   4.951   0.718  0.1146 -1.3423  3.4367
  349EMI    H1' 6623   2.241   4.830   0.604  1.5418  1.1104  1.8187
  349EMI    H1' 6624   2.100   4.836   0.724 -0.9695  1.4598 -0.9162
  349EMI    C1" 6625   2.571   4.592   0.942 -0.6157  0.1324 -0.0332
  349EMI    H1" 6626   2.640   4.671   0.971 -2.4768  0.5418  2.4228
  349EMI    H1" 6627   2.615   4.542   0.857  1.1327  0.0162  0.2904
  349EMI    C2" 6628   2.558   4.484   1.052  0.1236 -0.0057  0.3553
  349EMI    H2" 6629   2.520   4.390   1.019 -2.5604  0.5799  2.4797
  349EMI    H2" 6630   2.655   4.459   1.099  1.7555  0.8656  2.7606
  349EMI    H2" 6631   2.493   4.518   1.130  3.0444  1.4752  0.7759
  350EMI     N1 6632   6.062   1.714   0.021  0.5992  0.2169  0.0632
  350EMI     C2 6633   6.086   1.742  -0.107  0.2140 -0.8048 -0.0845
  350EMI     N3 6634   6.210   1.788  -0.121 -0.2613  0.2114  0.0602
  350EMI     C4 6635   6.259   1.806   0.012  0.0257  0.3890  0.0237
  350EMI     C5 6636   6.170   1.755   0.096  0.5142 -0.5327 -0.0162
  350EMI     H2 6637   6.021   1.737  -0.196  0.2013  1.2709 -0.9816
  350EMI     H4 6638   6.353   1.847   0.042  1.1729 -0.4621  1.0172
  350EMI     H5 6639   6.172   1.756   0.206 -2.0510 -1.3893  2.2451
  350EMI    C1' 6640   6.282   1.844  -0.239 -0.4191 -0.2414 -0.3589
  350EMI    H1' 6641   6.356   1.776  -0.290 -0.1344  0.4944  0.4642
  350EMI    H1' 6642   6.200   1.874  -0.308  0.7380  0.2219 -2.7553
  350EMI    H1' 6643   6.334   1.933  -0.199  0.9779 -0.5641  2.2335
  350EMI    C1" 6644   5.938   1.667   0.088  0.3747 -0.4883  0.2166
  350EMI    H1" 6645   5.853   1.685   0.018 -1.8613  1.7328 -1.2026
  350EMI    H1" 6646   5.933   1.720   0.185  1.7766  0.4789 -1.2531
  350EMI    C2" 6647   5.948   1.522   0.116 -0.7162 -0.4120 -0.0980
  350EMI    H2" 6648   5.861   1.496   0.171 -1.8244  2.4535  1.9722
  350EMI    H2" 6649   5.960   1.464   0.025  0.2373  0.3095  1.2202
  350EMI    H2" 6650   6.040   1.503   0.165 -0.7102 -2.1089 -0.8061
  351EMI     N1 6651   0.448   2.647   3.496  0.4581 -0.5399  0.5692
  351EMI     C2 6652   0.324   2.591   3.506  0.3113 -0.1376  0.7061
  351EMI     N3 6653   0.235   2.678   3.550 -0.4769  0.0128 -0.1668
  351EMI     C4 6654   0.307   2.799   3.566 -0.2301 -0.5599  0.1893
  351EMI     C5 6655   0.434   2.779   3.531 -0.8352 -0.2220  0.4359
  351EMI     H2 6656   0.302   2.491   3.475 -2.4012  0.7250 -1.3170
  351EMI     H4 6657   0.264   2.886   3.613  0.9315 -0.0988  0.3112
  351EMI     H5 6658   0.515   2.852   3.523  0.5265 -0.1425  0.0385
  351EMI    C1' 6659   0.090   2.686   3.574  0.8289 -0.0584 -0.5292
  351EMI    H1' 6660   0.046   2.645   3.486  1.6187 -0.6934 -1.5267
  351EMI    H1' 6661   0.066   2.626   3.666 -0.6726 -0.9840  1.2954
  351EMI    H1' 6662   0.065   2.791   3.576  1.3233  0.7819 -2.4156
  351EMI    C1" 6663   0.570   2.586   3.446  0.0341  0.2802  0.4414
  351EMI    H1" 6664   0.591   2.638   3.350  1.7615 -0.2805  0.7878
  351EMI    H1" 6665   0.546   2.487   3.426 -1.2022  1.6007  1.7601
  351EMI    C2" 6666   0.680   2.603   3.556 -0.1731 -0.0503 -0.1022
  351EMI    H2" 6667   0.775   2.546   3.542  0.9540 -2.3471  3.2388
  351EMI    H2" 6668   0.700   2.708   3.574  0.2449  2.0007  2.0378
  351EMI    H2" 6669   0.639   2.565   3.651 -0.5955 -0.5494 -0.5550
  352EMI     N1 6670   0.713   3.030   6.592  0.7084 -0.0043  0.3747
  352EMI     C2 6671   0.784   3.081   6.491 -0.1583 -0.6532 -0.0816
  352EMI     N3 6672   0.886   3.153   6.546 -0.9401  0.2999  0.2911
  352EMI     C4 6673   0.877   3.140   6.680  0.7327  0.4970  0.1041
  352EMI     C5 6674   0.772   3.064   6.707  0.2475  1.2424 -0.3144
  352EMI     H2 6675   0.761   3.065   6.384 -2.3201  1.0600  2.4190
  352EMI     H4 6676   0.938   3.186   6.756  1.2378  2.2006  1.3358
  352EMI     H5 6677   0.738   3.036   6.806 -2.3154  1.0081  0.2220
  352EMI    C1' 6678   1.003   3.214   6.482  0.2396 -0.7023 -0.7194
  352EMI    H1' 6679   0.967   3.307   6.434 -0.9914  2.0082  1.8749
  352EMI    H1' 6680   1.086   3.230   6.557 -0.3207 -2.2900  0.6832
  352EMI    H1' 6681   1.034   3.144   6.408  0.0552 -0.7690  0.6792
  352EMI    C1" 6682   0.603   2.930   6.598 -0.5173 -0.0098  0.6337
  352EMI    H1" 6683   0.626   2.862   6.680 -0.3377  3.6979 -0.5668
  352EMI    H1" 6684   0.592   2.877   6.500 -1.5389 -3.9175  0.2224
  352EMI    C2" 6685   0.465   2.998   6.634  0.3116 -0.4880 -0.4353
  352EMI    H2" 6686   0.419   3.035   6.548  1.5737 -1.2366  2.7839
  352EMI    H2" 6687   0.388   2.931   6.674  0.2683 -0.6691 -1.5081
  352EMI    H2" 6688   0.485   3.078   6.709 -2.0763  2.2556 -2.6240
  353EMI     N1 6689   5.513   2.709   0.697 -0.8163 -0.1137 -0.3701
  353EMI     C2 6690   5.436   2.628   0.771  0.9094 -0.2274 -0.1398
  353EMI     N3 6691   5.416   2.510   0.711  0.5949 -0.1396 -0.2567
  353EMI     C4 6692   5.484   2.520   0.588 -0.1914  0.1258 -0.3918
  353EMI     C5 6693   5.538   2.642   0.583 -0.1813 -0.1593  0.3739
  353EMI     H2 6694   5.400   2.648   0.871  1.0757  0.9971 -1.7960
  353EMI     H4 6695   5.491   2.439   0.515 -0.2564 -1.7853 -0.3009
  353EMI     H5 6696   5.601   2.685   0.497 -4.1367  1.1645 -0.1750
  353EMI    C1' 6697   5.341   2.390   0.761  0.4269  0.1115 -0.3139
  353EMI    H1' 6698   5.330   2.316   0.678  1.2209  1.3985  0.7552
  353EMI    H1' 6699   5.400   2.346   0.842 -0.7004  3.9502  0.0779
  353EMI    H1' 6700   5.244   2.420   0.797  0.5584  0.1521  1.6572
  353EMI    C1" 6701   5.551   2.854   0.716  0.0352 -0.1183 -0.3966
  353EMI    H1" 6702   5.623   2.889   0.642  0.5835  1.6308 -0.1349
  353EMI    H1" 6703   5.592   2.871   0.818 -0.8560 -1.8977 -0.7897
  353EMI    C2" 6704   5.421   2.928   0.712  0.1992 -0.5880 -0.0905
  353EMI    H2" 6705   5.435   3.034   0.713 -1.0928 -0.9970 -0.2419
  353EMI    H2" 6706   5.366   2.899   0.621  3.0520 -2.1175 -1.9432
  353EMI    H2" 6707   5.362   2.893   0.797 -1.0505  0.7360  1.3678
  354EMI     N1 6708   1.901   0.527   2.047 -0.2344 -0.0400 -0.0929
  354EMI     C2 6709   1.846   0.534   1.922  0.9795 -0.0856 -0.2563
  354EMI     N3 6710   1.718   0.508   1.937 -0.2372 -0.2485  0.0711
  354EMI     C4 6711   1.685   0.498   2.067 -0.5601 -0.0574  0.7100
  354EMI     C5 6712   1.796   0.500   2.137 -0.5089 -0.3410  0.5684
  354EMI     H2 6713   1.891   0.561   1.826  0.0569  1.0077 -0.1679
  354EMI     H4 6714   1.592   0.485   2.120  1.1478  2.4507 -3.2284
  354EMI     H5 6715   1.801   0.493   2.245  4.1189  3.9102 -0.5675
  354EMI    C1' 6716   1.613   0.502   1.834 -0.9328 -0.0050  0.0530
  354EMI    H1' 6717   1.606   0.606   1.789  1.5076 -0.1459  0.3025
  354EMI    H1' 6718   1.630   0.434   1.758  2.8791 -1.3310  1.1012
  354EMI    H1' 6719   1.509   0.490   1.872 -4.6029  0.2583  1.1968
  354EMI    C1" 6720   2.045   0.551   2.090 -0.5639  0.9544 -0.2679
  354EMI    H1" 6721   2.049   0.590   2.186  1.1655 -1.7134 -2.3272
  354EMI    H1" 6722   2.088   0.610   2.009 -1.0497 -0.9763 -1.6383
  354EMI    C2" 6723   2.111   0.411   2.093 -0.0100 -0.3690 -1.0329
  354EMI    H2" 6724   2.194   0.437   2.163 -1.6862  0.2593 -0.0790
  354EMI    H2" 6725   2.049   0.333   2.144  1.3557  2.1359 -0.6786
  354EMI    H2" 6726   2.134   0.377   1.994 -1.6949 -3.0930  2.3465
  355EMI     N1 6727   1.030   0.916   6.585 -0.4569 -0.3544  0.6367
  355EMI     C2 6728   1.152   0.910   6.528 -0.0395  0.1689 -0.2328
  355EMI     N3 6729   1.229   0.840   6.604  0.6185  0.1419  0.2203
  355EMI     C4 6730   1.162   0.802   6.716  0.3134 -0.4161 -0.1937
  355EMI     C5 6731   1.036   0.844   6.701 -1.4527 -0.1753 -0.1651
  355EMI     H2 6732   1.182   0.949   6.431  2.4803  2.3956  3.9667
  355EMI     H4 6733   1.199   0.741   6.795 -1.7185 -0.0040 -0.4813
  355EMI     H5 6734   0.947   0.850   6.767  1.1095  2.0778  0.5513
  355EMI    C1' 6735   1.370   0.812   6.588 -0.7890 -0.4418 -0.2504
  355EMI    H1' 6736   1.427   0.904   6.566  1.8847  0.1835  0.9537
  355EMI    H1' 6737   1.410   0.751   6.677 -1.5824  0.7422  0.5447
  355EMI    H1' 6738   1.370   0.754   6.495  0.2050 -0.4927 -0.0305
  355EMI    C1" 6739   0.907   0.985   6.535  0.7576 -0.0193  1.0185
  355EMI    H1" 6740   0.914   1.083   6.586  1.5624 -0.4064  0.6594
  355EMI    H1" 6741   0.817   0.936   6.577 -0.1068 -0.5586  1.7866
  355EMI    C2" 6742   0.889   1.011   6.384 -0.1386  0.8138  0.2638
  355EMI    H2" 6743   0.791   1.063   6.376  0.4789 -0.6878 -1.1157
  355EMI    H2" 6744   0.974   1.072   6.352 -1.9343  1.4780 -1.9651
  355EMI    H2" 6745   0.896   0.916   6.339 -0.2229  0.3260  1.0117
  356EMI     N1 6746   5.456   5.583   3.538 -0.6244 -0.1601 -0.4668
  356EMI     C2 6747   5.341   5.531   3.490 -0.9211 -0.0331 -0.5116
  356EMI     N3 6748   5.338   5.395   3.518  0.1672 -0.3412 -0.7112
  356EMI     C4 6749   5.439   5.369   3.601 -0.0383 -0.2289  0.0361
  356EMI     C5 6750   5.517   5.481   3.609 -0.1283 -0.2152 -0.0579
  356EMI     H2 6751   5.279   5.593   3.432 -0.5164 -0.1543  0.0965
  356EMI     H4 6752   5.461   5.282   3.656 -1.3591  0.9228  0.3076
  356EMI     H5 6753   5.601   5.484   3.681 -0.7591 -0.6259  1.6578
  356EMI    C1' 6754   5.245   5.289   3.476  0.4086 -0.3602 -0.5375
  356EMI    H1' 6755   5.176   5.322   3.399 -1.2855 -0.7799 -1.0794
  356EMI    H1' 6756   5.295   5.205   3.432 -2.3250 -2.9928 -0.7925
  356EMI    H1' 6757   5.187   5.265   3.563  0.7357 -0.9513  1.8279
  356EMI    C1" 6758   5.503   5.728   3.556  0.3600  0.1732  0.2113
  356EMI    H1" 6759   5.596   5.724   3.614  1.8443 -0.9638  1.0942
  356EMI    H1" 6760   5.438   5.797   3.603  0.4976  0.1771 -1.2309
  356EMI    C2" 6761   5.543   5.789   3.417 -0.4029  0.1744 -0.3484
  356EMI    H2" 6762   5.629   5.727   3.386  1.6221 -1.2260 -0.5996
  356EMI    H2" 6763   5.451   5.780   3.350 -1.5833 -0.1577 -3.8687
  356EMI    H2" 6764   5.566   5.894   3.421 -3.0789  0.1185  2.0965
  357EMI     N1 6765   1.794   1.835   0.579  0.1710  0.6255  0.6550
  357EMI     C2 6766   1.761   1.960   0.538 -0.8122  0.9706 -0.4498
  357EMI     N3 6767   1.873   2.023   0.499 -0.2668  0.0487 -0.5229
  357EMI     C4 6768   1.978   1.935   0.500  0.8020  0.6976 -0.0045
  357EMI     C5 6769   1.930   1.821   0.551  0.3844 -0.8971  0.0482
  357EMI     H2 6770   1.669   2.015   0.539  1.7608  1.2722 -1.1394
  357EMI     H4 6771   2.082   1.952   0.472  2.7708  1.6728 -0.4144
  357EMI     H5 6772   1.992   1.735   0.578 -0.5406 -1.0946 -0.8166
  357EMI    C1' 6773   1.872   2.169   0.473 -0.2166 -0.5695 -0.3026
  357EMI    H1' 6774   1.796   2.215   0.533  1.3589 -0.1634  0.2059
  357EMI    H1' 6775   1.966   2.217   0.497 -1.7713 -0.3650 -0.5817
  357EMI    H1' 6776   1.846   2.189   0.368 -2.3041 -1.8696 -0.8712
  357EMI    C1" 6777   1.715   1.721   0.626  0.4529 -0.6905  0.5069
  357EMI    H1" 6778   1.762   1.676   0.714  0.6353 -1.0785  0.9331
  357EMI    H1" 6779   1.702   1.658   0.540 -2.0271 -0.7503  0.2563
  357EMI    C2" 6780   1.567   1.749   0.657 -0.8468  0.4224  0.1115
  357EMI    H2" 6781   1.527   1.655   0.689  5.0786  0.6233 -0.7256
  357EMI    H2" 6782   1.561   1.822   0.731 -0.1713  1.5049 -0.1192
  357EMI    H2" 6783   1.508   1.784   0.575  0.3350 -0.7174  0.6492
  358EMI     N1 6784   0.951   4.624   4.955 -0.0255 -0.2660  0.1401
  358EMI     C2 6785   0.833   4.605   5.015  0.7580  0.6313  0.1986
  358EMI     N3 6786   0.732   4.672   4.950 -0.5788  0.1644 -0.3722
  358EMI     C4 6787   0.791   4.713   4.834  1.2301 -0.1960  0.3894
  358EMI     C5 6788   0.925   4.686   4.837  0.1222  0.0423  0.0983
  358EMI     H2 6789   0.825   4.540   5.103 -0.9944 -1.5561 -0.6895
  358EMI     H4 6790   0.738   4.755   4.746  0.6527 -0.9781  0.2304
  358EMI     H5 6791   1.000   4.707   4.763  2.2467  0.5062  1.5484
  358EMI    C1' 6792   0.590   4.675   4.984 -0.8719  0.9993  0.5707
  358EMI    H1' 6793   0.595   4.730   5.082  0.9176 -2.9289  2.9226
  358EMI    H1' 6794   0.546   4.747   4.912  0.8874  0.9059 -0.2035
  358EMI    H1' 6795   0.553   4.575   5.004  1.0213 -1.9739  1.6473
  358EMI    C1" 6796   1.081   4.581   5.011  0.2547  0.4578  0.2020
  358EMI    H1" 6797   1.128   4.666   5.055 -2.6011 -1.7608 -0.1853
  358EMI    H1" 6798   1.140   4.544   4.933 -1.9570 -3.5369 -1.3318
  358EMI    C2" 6799   1.062   4.463   5.114 -0.4894 -0.0004 -0.7061
  358EMI    H2" 6800   0.982   4.389   5.092 -0.5437 -2.2263 -1.4383
  358EMI    H2" 6801   1.156   4.412   5.116 -2.0960  0.8248 -0.4430
  358EMI    H2" 6802   1.037   4.504   5.212  0.4217  0.0551 -1.9748
  359EMI     N1 6803   4.920   3.291   0.151 -0.2052 -0.2881  0.2356
  359EMI     C2 6804   5.026   3.266   0.232 -0.0900  0.3715  0.5345
  359EMI     N3 6805   5.011   3.331   0.347  0.7731  0.0791  0.4150
  359EMI     C4 6806   4.893   3.405   0.336 -1.1921 -0.0804  0.9626
  359EMI     C5 6807   4.836   3.376   0.222  0.6208  0.2882  0.3379
  359EMI     H2 6808   5.117   3.197   0.213  0.5272  0.1787  1.0121
  359EMI     H4 6809   4.863   3.477   0.418  0.5027 -0.0785  0.0522
  359EMI     H5 6810   4.744   3.405   0.176 -0.4785 -3.1224  1.5423
  359EMI    C1' 6811   5.104   3.337   0.461 -0.7045 -0.5191 -0.1590
  359EMI    H1' 6812   5.141   3.237   0.493  1.1403 -3.1431 -1.9067
  359EMI    H1' 6813   5.189   3.405   0.437 -0.1129  3.4592 -0.9541
  359EMI    H1' 6814   5.052   3.378   0.544 -0.2463  1.2782  1.4587
  359EMI    C1" 6815   4.897   3.245   0.014  0.2628 -0.4094  0.1581
  359EMI    H1" 6816   4.962   3.301  -0.055 -1.6341 -1.3515  4.6749
  359EMI    H1" 6817   4.798   3.268  -0.024  0.4537  0.5104 -0.8678
  359EMI    C2" 6818   4.945   3.103  -0.005 -0.3599  0.9421  0.5334
  359EMI    H2" 6819   4.899   3.034   0.065 -1.2083  0.2485  0.8418
  359EMI    H2" 6820   4.927   3.062  -0.106  0.9927 -1.0263 -2.6075
  359EMI    H2" 6821   5.048   3.097   0.015 -2.4463 -0.1980 -1.1556
  360EMI     N1 6822   1.059   6.344   0.075  0.3957 -0.3049  0.2028
  360EMI     C2 6823   0.967   6.272   0.011 -0.5228 -0.5436  0.3964
  360EMI     N3 6824   0.933   6.330  -0.107 -0.6923  0.0300  0.1399
  360EMI     C4 6825   1.017   6.440  -0.120 -0.4228  0.1929  0.0643
  360EMI     C5 6826   1.090   6.455  -0.008  0.1396  0.1044  0.0617
  360EMI     H2 6827   0.917   6.194   0.055 -0.6574  1.6168 -3.2703
  360EMI     H4 6828   1.031   6.497  -0.208  0.9499  0.5242  1.8000
  360EMI     H5 6829   1.169   6.522   0.007 -1.0677  1.2992 -0.4767
  360EMI    C1' 6830   0.853   6.278  -0.221 -0.0057 -0.1592  0.3009
  360EMI    H1' 6831   0.892   6.330  -0.316  1.3882 -0.6561  4.0903
  360EMI    H1' 6832   0.875   6.173  -0.237  0.1148 -1.8774 -1.1402
  360EMI    H1' 6833   0.747   6.290  -0.193  1.5912 -1.9467  1.0147
  360EMI    C1" 6834   1.128   6.306   0.198 -1.1896 -0.6827 -0.5781
  360EMI    H1" 6835   1.236   6.330   0.188  0.3901  0.4150  0.9915
  360EMI    H1" 6836   1.131   6.201   0.211 -0.0201  3.4286  1.3831
  360EMI    C2" 6837   1.055   6.372   0.314  0.5577  0.0465 -0.0874
  360EMI    H2" 6838   1.033   6.471   0.294 -0.4590  0.3732  0.2750
  360EMI    H2" 6839   0.967   6.309   0.342 -0.2754 -0.3778  1.2922
  360EMI    H2" 6840   1.127   6.368   0.397  1.4469  0.4309 -0.0033
  361EMI     N1 6841   2.951   5.219   1.647 -0.4269  0.5458  0.3210
  361EMI     C2 6842   3.064   5.217   1.573  0.0187 -0.1764  0.3899
  361EMI     N3 6843   3.026   5.198   1.442  0.1260  0.3911  0.0314
  361EMI     C4 6844   2.889   5.189   1.446  1.0341 -0.0807  0.1497
  361EMI     C5 6845   2.841   5.201   1.572 -0.3638 -0.2258  0.1595
  361EMI     H2 6846   3.163   5.206   1.614  0.0867 -2.2907 -0.7254
  361EMI     H4 6847   2.822   5.169   1.367  0.5986  0.2328  0.9275
  361EMI     H5 6848   2.735   5.211   1.597 -1.6954 -0.8429 -0.9879
  361EMI    C1' 6849   3.103   5.179   1.326 -0.3164  0.2907 -0.3831
  361EMI    H1' 6850   3.204   5.156   1.350 -2.7936 -1.1301  1.0617
  361EMI    H1' 6851   3.063   5.092   1.266 -1.9297 -0.5093 -1.4519
  361EMI    H1' 6852   3.101   5.274   1.267  0.3355  0.9803 -0.6151
  361EMI    C1" 6853   2.928   5.247   1.787 -0.3430 -0.2272 -0.0524
  361EMI    H1" 6854   3.017   5.212   1.840  1.3009  0.2906 -0.7547
  361EMI    H1" 6855   2.838   5.197   1.813  1.0190 -0.9367 -0.2997
  361EMI    C2" 6856   2.923   5.397   1.803  0.0364 -0.1719  0.9495
  361EMI    H2" 6857   2.916   5.401   1.914  0.1112  0.0067  0.3353
  361EMI    H2" 6858   3.017   5.445   1.765  0.4344  0.9665  2.1102
  361EMI    H2" 6859   2.833   5.435   1.761  0.7305  0.9332 -0.3065
  362EMI     N1 6860   0.836   3.311   3.017 -0.0001 -0.0831  0.3111
  362EMI     C2 6861   0.868   3.245   2.906  0.0685 -0.1834  0.1667
  362EMI     N3 6862   0.871   3.107   2.921 -0.5885 -0.1605  0.4171
  362EMI     C4 6863   0.836   3.097   3.059 -0.0753  0.6970 -0.3356
  362EMI     C5 6864   0.814   3.219   3.113 -0.0218 -0.1447 -1.1958
  362EMI     H2 6865   0.894   3.296   2.814  0.9316  1.7008 -0.5056
  362EMI     H4 6866   0.815   3.007   3.111  2.7662  0.9553  0.8175
  362EMI     H5 6867   0.768   3.233   3.216  0.4633  0.8744 -0.2721
  362EMI    C1' 6868   0.893   3.007   2.821 -0.3675  0.6664 -0.6480
  362EMI    H1' 6869   0.870   2.923   2.877 -1.0777 -0.1909 -1.2411
  362EMI    H1' 6870   0.806   3.017   2.744 -1.9120  1.2039 -0.3359
  362EMI    H1' 6871   0.993   3.019   2.786 -1.5209  0.7632  0.5418
  362EMI    C1" 6872   0.816   3.458   3.036 -0.2635 -0.6387 -0.8260
  362EMI    H1" 6873   0.744   3.475   3.122 -0.3888 -1.3244 -0.5877
  362EMI    H1" 6874   0.786   3.505   2.940 -2.4516 -1.2811  0.3278
  362EMI    C2" 6875   0.950   3.523   3.071  0.4148  0.7100 -0.2905
  362EMI    H2" 6876   0.983   3.507   3.174  0.7798  2.1803 -1.3489
  362EMI    H2" 6877   1.024   3.481   3.001 -1.9973  0.3330 -2.2068
  362EMI    H2" 6878   0.958   3.627   3.051  0.1494  1.3501  1.7543
  363EMI     N1 6879   5.522   4.206   5.337  0.0264 -0.2647  0.2026
  363EMI     C2 6880   5.634   4.213   5.262 -0.0677 -0.3248 -0.5074
  363EMI     N3 6881   5.635   4.103   5.179 -0.2597  0.4512 -0.1468
  363EMI     C4 6882   5.515   4.037   5.191 -0.0101  0.3285 -0.2424
  363EMI     C5 6883   5.454   4.095   5.293  0.2560 -0.0791 -0.1328
  363EMI     H2 6884   5.712   4.281   5.261 -1.3299  0.6566  0.1985
  363EMI     H4 6885   5.490   3.950   5.141 -0.0681 -1.6160  0.8433
  363EMI     H5 6886   5.357   4.078   5.327  0.1145  4.7620  0.6471
  363EMI    C1' 6887   5.740   4.055   5.085  0.1941 -0.9995 -0.7370
  363EMI    H1' 6888   5.690   4.001   5.000  0.2389 -3.1894  0.7513
  363EMI    H1' 6889   5.797   4.135   5.047  1.3675 -0.8444 -1.1595
  363EMI    H1' 6890   5.803   3.988   5.136 -0.8766 -2.0612  2.2707
  363EMI    C1" 6891   5.455   4.304   5.435 -0.0112 -0.3500  0.5905
  363EMI    H1" 6892   5.353   4.331   5.394 -3.5177 -0.0298  2.2955
  363EMI    H1" 6893   5.520   4.391   5.438  0.5185  0.9726 -0.3228
  363EMI    C2" 6894   5.445   4.250   5.578  0.0355 -0.2150 -0.2993
  363EMI    H2" 6895   5.545   4.218   5.603 -2.5378  2.0590 -0.2790
  363EMI    H2" 6896   5.424   4.323   5.649  0.4177  0.0035 -1.2128
  363EMI    H2" 6897   5.360   4.177   5.599  1.1608 -0.4718  1.9138
  364EMI     N1 6898   6.057   0.020   4.460 -0.5417  0.0135 -0.1827
  364EMI     C2 6899   6.095   0.083   4.351  0.3365  0.0384 -0.5067
  364EMI     N3 6900   5.986   0.136   4.291 -0.0922 -0.0723  0.5249
  364EMI     C4 6901   5.878   0.112   4.373 -0.1823  0.1448 -0.6197
  364EMI     C5 6902   5.923   0.036   4.476  0.1841 -0.9897 -0.1160
  364EMI     H2 6903   6.195   0.080   4.313 -1.8068  0.2090  0.5601
  364EMI     H4 6904   5.776   0.146   4.352 -2.9661  0.8071  2.3340
  364EMI     H5 6905   5.862   0.010   4.565 -0.9991  1.9536 -0.7437
  364EMI    C1' 6906   5.959   0.212   4.169 -0.1095  0.0689  0.0043
  364EMI    H1' 6907   5.905   0.145   4.096 -2.3379 -1.3077 -1.6166
  364EMI    H1' 6908   5.903   0.302   4.185 -3.6554  2.4813 -0.0017
  364EMI    H1' 6909   6.051   0.239   4.115 -1.5595 -0.9568  1.0219
  364EMI    C1" 6910   6.128  -0.075   4.540  0.1198 -0.4015 -0.8260
  364EMI    H1" 6911   6.142  -0.176   4.488  2.3621 -2.7584 -3.9154
  364EMI    H1" 6912   6.056  -0.095   4.621 -1.4476 -1.6596 -3.0230
  364EMI    C2" 6913   6.260  -0.028   4.596 -0.2642 -0.2925 -0.0565
  364EMI    H2" 6914   6.327   0.011   4.517  0.7864  1.5957 -0.1812
  364EMI    H2" 6915   6.252   0.060   4.669 -2.5138  0.6681 -0.7694
  364EMI    H2" 6916   6.308  -0.119   4.635 -0.0519  0.4198  0.1163
  365EMI     N1 6917   3.301   4.565   3.756  0.2418 -0.1195 -0.5395
  365EMI     C2 6918   3.240   4.578   3.636  0.0441 -0.1512  0.0523
  365EMI     N3 6919   3.223   4.456   3.578 -0.3767 -0.0809  0.2346
  365EMI     C4 6920   3.285   4.365   3.663 -0.0571 -0.4427  0.4911
  365EMI     C5 6921   3.336   4.433   3.769  0.0600  0.8111  0.5885
  365EMI     H2 6922   3.196   4.666   3.587 -0.7137  0.0534  0.3906
  365EMI     H4 6923   3.288   4.262   3.651  0.6463  2.0490  1.2340
  365EMI     H5 6924   3.387   4.383   3.854  3.6404 -1.3981  2.1581
  365EMI    C1' 6925   3.174   4.410   3.446 -0.4105 -0.1005 -1.2405
  365EMI    H1' 6926   3.129   4.315   3.466 -2.1885  2.6423  1.1035
  365EMI    H1' 6927   3.095   4.484   3.414 -1.0486  0.7214 -1.8478
  365EMI    H1' 6928   3.257   4.416   3.377  0.9533 -0.9140  0.9258
  365EMI    C1" 6929   3.332   4.659   3.862  0.0928 -0.0659  0.3947
  365EMI    H1" 6930   3.372   4.598   3.943  0.0522 -2.4067 -4.0162
  365EMI    H1" 6931   3.245   4.725   3.894 -0.7540  0.9505  1.3807
  365EMI    C2" 6932   3.447   4.744   3.818 -0.4090 -0.0935  0.0704
  365EMI    H2" 6933   3.416   4.822   3.749  1.2459 -0.4029  0.9062
  365EMI    H2" 6934   3.482   4.799   3.905  1.7827  1.6428 -0.8526
  365EMI    H2" 6935   3.523   4.701   3.754 -2.1479  0.6411 -2.1847
  366EMI     N1 6936   6.126   1.233   1.990 -0.6175 -0.3751  0.5582
  366EMI     C2 6937   6.088   1.174   2.106  0.3049  0.1039 -0.1865
  366EMI     N3 6938   6.123   1.040   2.113 -0.1737 -0.2702  0.6825
  366EMI     C4 6939   6.171   1.021   1.986  0.3501  0.4383  0.2780
  366EMI     C5 6940   6.169   1.132   1.910  0.1202  0.2844 -0.3937
  366EMI     H2 6941   6.022   1.217   2.183 -0.6507 -0.2455 -1.1172
  366EMI     H4 6942   6.196   0.922   1.956  3.0146  2.5600  1.0505
  366EMI     H5 6943   6.207   1.146   1.809  0.8644 -0.5512 -1.5583
  366EMI    C1' 6944   6.091   0.933   2.204 -0.3368  0.4964  0.2401
  366EMI    H1' 6945   6.110   0.835   2.171  3.2329  1.7800  2.3957
  366EMI    H1' 6946   6.155   0.938   2.294 -1.3450 -1.3554  0.9538
  366EMI    H1' 6947   5.993   0.952   2.231 -0.3458 -2.9824  0.0269
  366EMI    C1" 6948   6.118   1.369   1.942 -0.1845 -0.5115 -0.0224
  366EMI    H1" 6949   6.120   1.354   1.832 -1.0196 -0.0564 -0.9244
  366EMI    H1" 6950   6.193   1.437   1.981  0.1915  4.2543 -0.4346
  366EMI    C2" 6951   5.982   1.437   1.974  0.6494  1.0683 -0.2852
  366EMI    H2" 6952   5.902   1.371   1.938  0.5957 -3.0692 -1.8309
  366EMI    H2" 6953   5.962   1.448   2.083  1.3774  0.4388 -1.6901
  366EMI    H2" 6954   5.975   1.535   1.920  2.6411 -0.0672  0.5011
  367EMI     N1 6955   1.170   0.469   5.241  0.0584 -0.0112  0.2758
  367EMI     C2 6956   1.199   0.601   5.249 -0.1941  0.8320 -0.1652
  367EMI     N3 6957   1.245   0.646   5.132  0.3179 -0.3651 -0.3489
  367EMI     C4 6958   1.237   0.545   5.042  0.3691 -0.3888  0.1838
  367EMI     C5 6959   1.188   0.435   5.107 -0.1798  0.1938 -0.6110
  367EMI     H2 6960   1.208   0.663   5.336  1.9169  1.8443  1.1817
  367EMI     H4 6961   1.276   0.555   4.941  0.2424  1.2869  0.0197
  367EMI     H5 6962   1.184   0.336   5.067 -0.5657  3.2972 -1.7805
  367EMI    C1' 6963   1.285   0.778   5.092 -0.3544  0.0378 -0.5037
  367EMI    H1' 6964   1.212   0.845   5.144  2.0681  1.3720 -0.3625
  367EMI    H1' 6965   1.385   0.788   5.128  0.8601  1.7620 -0.4215
  367EMI    H1' 6966   1.279   0.788   4.990 -0.4250 -1.1851  2.4333
  367EMI    C1" 6967   1.114   0.364   5.340  0.7259 -0.6308 -0.2872
  367EMI    H1" 6968   1.198   0.322   5.398  4.6221  2.0301 -0.0652
  367EMI    H1" 6969   1.062   0.284   5.296 -1.1327 -0.2000 -0.3241
  367EMI    C2" 6970   1.008   0.432   5.435 -0.4033 -1.0847  0.5085
  367EMI    H2" 6971   1.039   0.533   5.468 -0.4841  2.0381  3.6129
  367EMI    H2" 6972   0.910   0.437   5.372 -3.1871  0.3632  0.0703
  367EMI    H2" 6973   0.989   0.367   5.515  2.2263  0.9492 -0.4904
  368EMI     N1 6974   6.413   2.019   0.245 -0.2099  0.2052 -0.1825
  368EMI     C2 6975   6.492   1.908   0.244  0.0465  1.1348  0.2956
  368EMI     N3 6976   6.454   1.825   0.341  0.0046 -0.0494 -1.0252
  368EMI     C4 6977   6.336   1.874   0.392  0.0096  0.6174 -0.9305
  368EMI     C5 6978   6.314   1.997   0.336  0.2556  0.4320 -0.1702
  368EMI     H2 6979   6.562   1.893   0.177  2.2475  0.7341  0.8888
  368EMI     H4 6980   6.268   1.824   0.465  0.0292  0.4327 -0.1381
  368EMI     H5 6981   6.219   2.054   0.348 -2.7655 -1.9520 -0.7508
  368EMI    C1' 6982   6.527   1.717   0.407 -0.4503  0.2193 -0.0413
  368EMI    H1' 6983   6.585   1.762   0.485 -0.3101 -0.1496 -0.7694
  368EMI    H1' 6984   6.451   1.647   0.445  0.3625  3.5658 -0.4572
  368EMI    H1' 6985   6.590   1.668   0.336  1.6516 -1.9198  0.8571
  368EMI    C1" 6986   6.427   2.147   0.163  0.3080  0.2525 -0.6887
  368EMI    H1" 6987   6.528   2.173   0.167 -0.5734 -0.4032 -0.9472
  368EMI    H1" 6988   6.373   2.234   0.201  0.7451 -1.7941 -2.0896
  368EMI    C2" 6989   6.390   2.133   0.015  0.4380 -1.1483  0.1446
  368EMI    H2" 6990   6.436   2.213  -0.041  1.4525 -0.1744  2.5441
  368EMI    H2" 6991   6.421   2.047  -0.039 -2.9419  0.9570 -0.5954
  368EMI    H2" 6992   6.278   2.145   0.003 -0.6304 -1.9366  1.1167
  369EMI     N1 6993   3.170   5.138   4.647  0.7196 -0.1595  0.3590
  369EMI     C2 6994   3.198   5.251   4.716 -0.0492 -0.5471 -0.1544
  369EMI     N3 6995   3.200   5.351   4.628  0.5377  0.7010 -0.3769
  369EMI     C4 6996   3.171   5.303   4.502  0.2782  0.1174 -0.0720
  369EMI     C5 6997   3.155   5.173   4.513  0.3428  0.2785  0.1672
  369EMI     H2 6998   3.222   5.254   4.821  3.0331  0.8446 -1.6975
  369EMI     H4 6999   3.170   5.365   4.410  1.1701  1.0368  1.5796
  369EMI     H5 7000   3.137   5.103   4.428 -1.8831 -0.2501 -0.5020
  369EMI    C1' 7001   3.229   5.495   4.657 -0.7205  0.4345 -0.1253
  369EMI    H1' 7002   3.282   5.490   4.746  0.0960  0.9225 -0.2750
  369EMI    H1' 7003   3.294   5.542   4.584 -0.5228 -1.1130  1.3456
  369EMI    H1' 7004   3.137   5.557   4.681 -1.5054  1.3897 -1.5176
  369EMI    C1" 7005   3.146   5.001   4.704  0.7222 -0.5582  0.1096
  369EMI    H1" 7006   3.237   4.970   4.753  0.4492  1.0496  0.1014
  369EMI    H1" 7007   3.125   4.932   4.622  0.1558  2.5881 -1.6044
  369EMI    C2" 7008   3.024   5.002   4.798  0.6538  0.3583  0.4821
  369EMI    H2" 7009   2.941   5.010   4.733 -1.5191 -1.5895  2.0992
  369EMI    H2" 7010   3.023   4.908   4.853  2.0976  0.6230  1.2911
  369EMI    H2" 7011   3.029   5.083   4.860  0.4356 -0.6010 -6.1005
  370EMI     N1 7012   2.328   3.306   0.145  0.0593 -0.3125  0.1630
  370EMI     C2 7013   2.458   3.315   0.118 -0.0188 -0.2497 -0.2187
  370EMI     N3 7014   2.474   3.396   0.010  0.3799  0.4721 -0.0504
  370EMI     C4 7015   2.349   3.442  -0.023 -0.1292  0.7333 -0.0846
  370EMI     C5 7016   2.260   3.379   0.054 -0.2806 -0.3234  0.8068
  370EMI     H2 7017   2.537   3.269   0.175  1.8997 -0.2608 -0.7500
  370EMI     H4 7018   2.324   3.510  -0.106  3.2366 -3.0060  2.7848
  370EMI     H5 7019   2.153   3.391   0.046  2.5746  0.4091 -1.6415
  370EMI    C1' 7020   2.585   3.435  -0.083  0.3362 -0.0600 -0.3233
  370EMI    H1' 7021   2.624   3.351  -0.137  0.2379 -2.4086  1.5772
  370EMI    H1' 7022   2.544   3.516  -0.145  4.2968  2.7425 -0.8986
  370EMI    H1' 7023   2.661   3.488  -0.030 -0.3729 -0.4011  1.6742
  370EMI    C1" 7024   2.246   3.232   0.245 -0.1817 -0.7454  0.0953
  370EMI    H1" 7025   2.157   3.287   0.271 -3.0283 -0.9990 -0.5923
  370EMI    H1" 7026   2.299   3.198   0.333  4.3018  0.9169  1.9642
  370EMI    C2" 7027   2.196   3.104   0.181  0.1031 -0.0051  0.6521
  370EMI    H2" 7028   2.127   3.128   0.098  0.7390  1.3932 -0.7470
  370EMI    H2" 7029   2.275   3.045   0.138 -1.9103  0.2055  1.0187
  370EMI    H2" 7030   2.132   3.054   0.256 -2.3291  0.4381 -2.1043
  371EMI     N1 7031   0.648   6.785   3.206  0.4554  0.0130 -0.2796
  371EMI     C2 7032   0.543   6.840   3.270  0.1279 -0.5162  0.0753
  371EMI     N3 7033   0.441   6.873   3.181  0.8253 -0.6125 -0.6511
  371EMI     C4 7034   0.482   6.820   3.057 -0.0949 -0.3241 -0.0936
  371EMI     C5 7035   0.611   6.776   3.070 -0.0188 -0.7925  0.5961
  371EMI     H2 7036   0.536   6.853   3.374 -0.2127 -0.2687  1.5118
  371EMI     H4 7037   0.426   6.835   2.967 -0.4407 -0.5294  3.4316
  371EMI     H5 7038   0.668   6.735   2.978 -0.4187 -1.3794 -1.8370
  371EMI    C1' 7039   0.314   6.945   3.211 -0.1322 -0.3989 -0.1568
  371EMI    H1' 7040   0.328   7.019   3.296  0.6821 -0.3421 -0.4922
  371EMI    H1' 7041   0.271   6.996   3.129 -0.6990 -1.7046  0.3897
  371EMI    H1' 7042   0.242   6.868   3.246 -0.6036 -2.8250 -0.9173
  371EMI    C1" 7043   0.778   6.742   3.258  0.5865  0.2092  0.1448
  371EMI    H1" 7044   0.778   6.631   3.273  0.2040 -0.0109 -0.2696
  371EMI    H1" 7045   0.799   6.792   3.353  0.8852 -0.9904  0.0572
  371EMI    C2" 7046   0.896   6.773   3.173 -0.6332 -0.9623 -0.1597
  371EMI    H2" 7047   0.883   6.711   3.087 -1.6486 -1.7375  0.4663
  371EMI    H2" 7048   0.898   6.880   3.163 -0.8017 -0.3355  0.6277
  371EMI    H2" 7049   0.988   6.754   3.231 -1.2889  1.2260 -0.8682
  372EMI     N1 7050   0.785   5.542   2.588  0.2981 -0.0983 -0.5707
  372EMI     C2 7051   0.879   5.447   2.590  0.2694  0.0291  0.2000
  372EMI     N3 7052   0.845   5.337   2.527 -0.2711  0.4075  0.4945
  372EMI     C4 7053   0.724   5.363   2.477  0.2690  0.4961  0.5030
  372EMI     C5 7054   0.682   5.484   2.516 -0.3584  0.3529  0.3529
  372EMI     H2 7055   0.969   5.450   2.648 -1.4892 -0.1790 -0.0965
  372EMI     H4 7056   0.660   5.291   2.426 -1.7645 -0.1538  0.8240
  372EMI     H5 7057   0.587   5.537   2.488 -0.3974  0.4362  0.0736
  372EMI    C1' 7058   0.923   5.213   2.493 -1.5567 -0.1925 -0.2827
  372EMI    H1' 7059   1.016   5.239   2.438  1.1712  0.2704  1.5424
  372EMI    H1' 7060   0.961   5.172   2.592 -0.3355 -0.3301  0.3649
  372EMI    H1' 7061   0.866   5.131   2.451  1.0850  0.6748  1.7584
  372EMI    C1" 7062   0.779   5.673   2.655  0.1609  0.4608 -0.2190
  372EMI    H1" 7063   0.866   5.678   2.724 -0.2591 -1.8373  0.7225
  372EMI    H1" 7064   0.691   5.678   2.718  0.0804 -2.3783  2.1703
  372EMI    C2" 7065   0.780   5.778   2.549  0.2740 -0.3812  0.5274
  372EMI    H2" 7066   0.689   5.773   2.490  0.9756  2.2700 -3.6375
  372EMI    H2" 7067   0.782   5.883   2.583 -0.4363  4.3318  1.9057
  372EMI    H2" 7068   0.864   5.778   2.481 -1.6885  3.3738 -0.2079
  373EMI     N1 7069   0.160   6.796   5.056 -0.2832  0.2944 -0.1559
  373EMI     C2 7070   0.142   6.886   5.160  0.6903  0.0922  0.4328
  373EMI     N3 7071   0.125   7.006   5.109  0.4745  0.4483  0.2105
  373EMI     C4 7072   0.119   6.997   4.973  0.0816 -0.0498 -0.7722
  373EMI     C5 7073   0.140   6.868   4.937 -0.4089 -0.6014  0.0839
  373EMI     H2 7074   0.140   6.861   5.266  0.0863 -0.5178  1.1776
  373EMI     H4 7075   0.101   7.074   4.907 -0.4016 -1.5068 -2.6654
  373EMI     H5 7076   0.133   6.828   4.837 -2.2162  0.3473  1.4995
  373EMI    C1' 7077   0.116   7.131   5.176 -0.1548 -0.2316  0.2571
  373EMI    H1' 7078   0.167   7.126   5.267 -1.2582  1.5309 -0.6673
  373EMI    H1' 7079   0.155   7.200   5.112  2.1256 -1.9416  3.6788
  373EMI    H1' 7080   0.015   7.162   5.212 -0.0139 -0.9999 -1.3366
  373EMI    C1" 7081   0.148   6.650   5.064 -0.1652  0.0830 -0.4089
  373EMI    H1" 7082   0.050   6.627   5.014  0.2171 -1.0769 -2.1912
  373EMI    H1" 7083   0.143   6.617   5.172  0.8146 -1.3194  1.3768
  373EMI    C2" 7084   0.256   6.577   4.995 -0.8046 -0.5495  0.0833
  373EMI    H2" 7085   0.259   6.595   4.886 -3.1192  1.3539 -0.2864
  373EMI    H2" 7086   0.350   6.605   5.038 -0.3753 -1.1092 -1.3091
  373EMI    H2" 7087   0.240   6.469   5.007  0.1651 -0.0464 -0.0296
  374EMI     N1 7088   2.084   3.593   2.395  0.8123  0.0093  0.7556
  374EMI     C2 7089   1.970   3.539   2.340  0.0432 -0.0319  0.0595
  374EMI     N3 7090   2.011   3.438   2.257  0.2987  0.2128 -0.1621
  374EMI     C4 7091   2.146   3.438   2.258 -0.2470  0.1326 -0.7501
  374EMI     C5 7092   2.191   3.534   2.346 -0.1505  0.4732 -0.8377
  374EMI     H2 7093   1.870   3.578   2.360  0.4778  0.2383  0.0276
  374EMI     H4 7094   2.212   3.376   2.193  3.1769  2.0626  1.2607
  374EMI     H5 7095   2.295   3.556   2.374 -0.9368 -2.0245 -0.6513
  374EMI    C1' 7096   1.935   3.350   2.166 -0.6104  0.6613  0.6612
  374EMI    H1' 7097   1.897   3.261   2.222 -1.1203  0.7102  0.2362
  374EMI    H1' 7098   1.843   3.403   2.130  1.5046 -0.3970 -0.2007
  374EMI    H1' 7099   1.992   3.322   2.081  2.1270  2.2220  0.5095
  374EMI    C1" 7100   2.087   3.710   2.486 -0.7773  0.4185  0.7111
  374EMI    H1" 7101   2.194   3.730   2.513  1.8739 -1.4106  0.9600
  374EMI    H1" 7102   2.022   3.691   2.564  1.0590 -1.1558  0.2484
  374EMI    C2" 7103   2.036   3.845   2.430 -0.3382 -0.0505 -0.2648
  374EMI    H2" 7104   1.929   3.838   2.405 -3.4455 -0.8729 -2.3527
  374EMI    H2" 7105   2.053   3.917   2.506 -0.8767  1.2251 -0.2213
  374EMI    H2" 7106   2.084   3.863   2.339 -1.1049 -1.4111  0.9183
  375EMI     N1 7107   6.508   1.698   5.517 -0.1738  0.1912 -0.3980
  375EMI     C2 7108   6.419   1.755   5.433 -0.2805  0.3105 -0.1541
  375EMI     N3 7109   6.418   1.890   5.447  0.2719 -0.2474  0.3662
  375EMI     C4 7110   6.513   1.911   5.549 -1.1692 -0.6920  1.0251
  375EMI     C5 7111   6.565   1.795   5.588 -0.6074 -0.3773 -0.1636
  375EMI     H2 7112   6.356   1.692   5.368  0.1007  1.6911  2.0999
  375EMI     H4 7113   6.529   2.012   5.598  1.3161  1.2871  2.4545
  375EMI     H5 7114   6.635   1.776   5.667  1.8386  0.3047  1.0115
  375EMI    C1' 7115   6.337   1.991   5.380 -0.3730  0.5479 -0.0712
  375EMI    H1' 7116   6.330   1.973   5.271 -1.7880 -0.6622  0.9244
  375EMI    H1' 7117   6.241   1.984   5.424 -0.6587  0.0387  0.4688
  375EMI    H1' 7118   6.383   2.092   5.389  0.5627  4.1830  0.3762
  375EMI    C1" 7119   6.551   1.554   5.517  0.4802 -0.0340  0.5089
  375EMI    H1" 7120   6.607   1.536   5.434 -2.1905  1.2313  0.0755
  375EMI    H1" 7121   6.455   1.501   5.498  1.3663  0.1052  2.4723
  375EMI    C2" 7122   6.620   1.497   5.640  0.4238  0.2109 -0.1739
  375EMI    H2" 7123   6.545   1.489   5.718 -0.1517 -0.2241  0.5968
  375EMI    H2" 7124   6.642   1.394   5.621 -0.7153 -2.0485  1.6984
  375EMI    H2" 7125   6.708   1.555   5.682  3.0699 -1.1491 -0.6866
  376EMI     N1 7126   0.774   3.846   1.716 -0.2484 -0.1627 -0.0466
  376EMI     C2 7127   0.757   3.770   1.610 -0.4390  0.3356  0.5847
  376EMI     N3 7128   0.690   3.837   1.518  0.0386 -0.0687 -0.3856
  376EMI     C4 7129   0.670   3.967   1.566  0.0910  0.0476  0.1162
  376EMI     C5 7130   0.728   3.968   1.686 -0.4929  0.6658 -0.2974
  376EMI     H2 7131   0.796   3.664   1.604  2.8029 -0.7397  0.6327
  376EMI     H4 7132   0.626   4.054   1.521  1.9674  0.1325  0.1747
  376EMI     H5 7133   0.729   4.046   1.756  3.2684 -1.1706 -2.3995
  376EMI    C1' 7134   0.650   3.800   1.382 -0.0703  0.2070 -0.5910
  376EMI    H1' 7135   0.704   3.717   1.345 -0.6001  0.5671  0.7850
  376EMI    H1' 7136   0.546   3.771   1.394  1.8712  0.5974 -0.8235
  376EMI    H1' 7137   0.657   3.876   1.309  0.7990  1.5258  1.1930
  376EMI    C1" 7138   0.854   3.826   1.833 -0.2160 -0.2081 -0.7973
  376EMI    H1" 7139   0.924   3.907   1.837 -0.1877 -3.3292  0.2419
  376EMI    H1" 7140   0.918   3.741   1.807  0.0531  0.3763 -0.1161
  376EMI    C2" 7141   0.780   3.798   1.966  0.8270  0.2944  0.5370
  376EMI    H2" 7142   0.719   3.882   1.998  0.1774  0.1753 -1.2437
  376EMI    H2" 7143   0.716   3.719   1.942  1.9814  0.0639 -3.0178
  376EMI    H2" 7144   0.860   3.774   2.032  1.3756  0.4374  1.1170
  377EMI     N1 7145   5.188   5.443   2.876 -0.0998 -0.4162  0.2011
  377EMI     C2 7146   5.104   5.465   2.773  0.0073  0.5558 -0.7176
  377EMI     N3 7147   5.102   5.589   2.738 -0.0199 -0.8812 -0.5529
  377EMI     C4 7148   5.189   5.660   2.828  1.4194 -0.2433  0.4749
  377EMI     C5 7149   5.246   5.564   2.900  0.5280  0.5654  0.3114
  377EMI     H2 7150   5.035   5.389   2.741  1.9426  1.1127 -1.5357
  377EMI     H4 7151   5.212   5.765   2.823  2.5698  0.9002  0.0622
  377EMI     H5 7152   5.315   5.576   2.984 -0.7090  1.0694 -1.0093
  377EMI    C1' 7153   5.021   5.662   2.654  0.0995  0.0958  0.7608
  377EMI    H1' 7154   5.061   5.700   2.561  1.0580 -2.4269 -0.9878
  377EMI    H1' 7155   4.932   5.607   2.618 -2.1709 -0.4144  1.2815
  377EMI    H1' 7156   4.996   5.752   2.707  2.0494 -0.5880  1.6347
  377EMI    C1" 7157   5.217   5.321   2.957  0.8224  0.1959  0.6998
  377EMI    H1" 7158   5.323   5.325   2.971 -2.6763 -0.4983 -1.7130
  377EMI    H1" 7159   5.197   5.229   2.905 -1.0927 -0.3955  1.3259
  377EMI    C2" 7160   5.138   5.327   3.086  0.4099 -0.0005  0.5721
  377EMI    H2" 7161   5.177   5.413   3.129 -0.5236 -0.1481  0.3852
  377EMI    H2" 7162   5.031   5.348   3.071  1.5384 -0.5344  2.1230
  377EMI    H2" 7163   5.146   5.236   3.145 -3.7201  1.8140 -1.3734
  378EMI     N1 7164   0.489   3.701   0.176  0.2933 -0.1044  0.1267
  378EMI     C2 7165   0.541   3.804   0.116  0.2978  0.1913  0.1584
  378EMI     N3 7166   0.471   3.831   0.002 -0.0249  0.2722 -0.1468
  378EMI     C4 7167   0.364   3.744   0.003 -0.0123  0.1214 -0.1838
  378EMI     C5 7168   0.383   3.654   0.105 -0.2299  0.4184  0.0104
  378EMI     H2 7169   0.618   3.858   0.155 -0.4870 -1.3781 -2.3138
  378EMI     H4 7170   0.297   3.729  -0.073 -0.4999 -0.1457 -0.9776
  378EMI     H5 7171   0.327   3.556   0.111  0.5036  0.7782  0.4691
  378EMI    C1' 7172   0.477   3.943  -0.096  0.4158  0.2545 -0.2934
  378EMI    H1' 7173   0.500   4.034  -0.045 -1.5079 -0.9056 -0.7386
  378EMI    H1' 7174   0.559   3.919  -0.170  1.8651  0.1922 -0.6007
  378EMI    H1' 7175   0.374   3.980  -0.127  2.1385 -1.0553  0.8633
  378EMI    C1" 7176   0.530   3.628   0.300 -0.0441  0.1223  0.0725
  378EMI    H1" 7177   0.632   3.593   0.284  1.6354 -1.8620 -1.2517
  378EMI    H1" 7178   0.468   3.535   0.316 -1.7544  0.1390  0.3033
  378EMI    C2" 7179   0.519   3.726   0.422  0.3070 -1.1235  0.4362
  378EMI    H2" 7180   0.575   3.820   0.411 -0.1316  1.1497  1.8322
  378EMI    H2" 7181   0.419   3.754   0.434  3.3062 -0.7144 -2.0736
  378EMI    H2" 7182   0.543   3.664   0.512  1.6613 -0.6491  2.6937
  379EMI     N1 7183   4.832   5.313   0.868  0.1483 -0.9291  0.4788
  379EMI     C2 7184   4.928   5.231   0.901 -0.0805 -0.9244 -0.4250
  379EMI     N3 7185   4.997   5.293   1.005  0.2735 -0.4490  0.0869
  379EMI     C4 7186   4.942   5.423   1.019  0.2844 -0.0897  0.2717
  379EMI     C5 7187   4.839   5.430   0.940  0.1778 -0.1607 -0.5002
  379EMI     H2 7188   4.939   5.128   0.857 -0.6973 -1.5569 -3.5383
  379EMI     H4 7189   4.964   5.498   1.089  2.4505 -0.0188 -0.2720
  379EMI     H5 7190   4.777   5.514   0.931  0.9438 -1.4319  1.2504
  379EMI    C1' 7191   5.115   5.257   1.088  0.0456 -0.3112  0.7868
  379EMI    H1' 7192   5.217   5.273   1.047  1.6295 -0.3060 -0.1794
  379EMI    H1' 7193   5.119   5.308   1.182  2.9813 -3.0490 -1.6113
  379EMI    H1' 7194   5.110   5.154   1.115 -0.1739 -0.1178  0.6123
  379EMI    C1" 7195   4.721   5.299   0.774 -0.2413 -0.5254  0.5371
  379EMI    H1" 7196   4.675   5.396   0.759  1.7532  1.7823  0.8496
  379EMI    H1" 7197   4.648   5.226   0.806  2.9728 -1.2700 -0.5036
  379EMI    C2" 7198   4.771   5.266   0.639 -0.6520  0.0840  0.2284
  379EMI    H2" 7199   4.688   5.276   0.567 -2.1027 -0.2082 -0.4562
  379EMI    H2" 7200   4.855   5.336   0.607  0.2325 -2.4742 -2.4751
  379EMI    H2" 7201   4.807   5.163   0.643  0.5887  0.6111  0.1798
  380EMI     N1 7202   3.926   6.218   5.584 -0.3292  0.1899  0.3050
  380EMI     C2 7203   3.884   6.159   5.471 -0.5616 -0.3643  0.3391
  380EMI     N3 7204   3.820   6.246   5.392  0.3967 -0.8533  0.8096
  380EMI     C4 7205   3.808   6.361   5.464 -0.2461 -0.0184 -0.0605
  380EMI     C5 7206   3.884   6.353   5.576 -0.5058  0.9518  0.9562
  380EMI     H2 7207   3.901   6.056   5.446  1.4334  1.0995  1.4352
  380EMI     H4 7208   3.763   6.453   5.430  0.1381 -2.1581  1.8114
  380EMI     H5 7209   3.923   6.424   5.648 -1.7771 -0.1626  2.0345
  380EMI    C1' 7210   3.759   6.221   5.260 -0.3549  0.1722 -0.3896
  380EMI    H1' 7211   3.678   6.303   5.251  2.8404  1.7220 -1.2156
  380EMI    H1' 7212   3.849   6.238   5.187  0.5928 -1.2749  0.2664
  380EMI    H1' 7213   3.710   6.121   5.266  1.0244 -0.5835  0.5919
  380EMI    C1" 7214   3.993   6.166   5.702  0.1844 -0.7353  0.0382
  380EMI    H1" 7215   3.978   6.063   5.697  0.0059 -0.1121  0.7115
  380EMI    H1" 7216   3.941   6.212   5.789  1.9190  1.0147 -2.4742
  380EMI    C2" 7217   4.142   6.190   5.699  0.6030 -0.2578 -0.0286
  380EMI    H2" 7218   4.171   6.296   5.727  0.1672  1.6989  0.2420
  380EMI    H2" 7219   4.192   6.134   5.779 -0.6907  0.5612 -2.1184
  380EMI    H2" 7220   4.186   6.170   5.598 -3.3693  0.2152  2.4306
  381EMI     N1 7221   6.070   4.495   3.700  0.6196 -0.1241  0.7002
  381EMI     C2 7222   6.191   4.454   3.661 -0.4977 -1.0241 -0.5135
  381EMI     N3 7223   6.184   4.322   3.647 -0.4595  0.5644  0.3036
  381EMI     C4 7224   6.057   4.282   3.686 -0.5547  0.2182  0.2086
  381EMI     C5 7225   5.983   4.387   3.700  0.4688 -0.1409 -0.0427
  381EMI     H2 7226   6.281   4.518   3.655 -1.4154 -1.3491  0.1190
  381EMI     H4 7227   6.024   4.181   3.703  2.2863 -0.4406 -1.3780
  381EMI     H5 7228   5.873   4.398   3.717  0.0270 -1.5165  1.0976
  381EMI    C1' 7229   6.288   4.220   3.617  0.2074  0.3278  0.6119
  381EMI    H1' 7230   6.354   4.263   3.543  1.3481 -2.6658  0.8120
  381EMI    H1' 7231   6.350   4.205   3.703 -0.1514  1.5948 -0.5834
  381EMI    H1' 7232   6.243   4.137   3.569  1.9612  3.4738 -2.5976
  381EMI    C1" 7233   6.021   4.632   3.732 -0.0038 -0.3711  0.0909
  381EMI    H1" 7234   6.058   4.654   3.826  1.2923 -0.0583 -0.6512
  381EMI    H1" 7235   5.917   4.635   3.737  1.2408 -0.9426 -1.0564
  381EMI    C2" 7236   6.079   4.744   3.641 -0.2866 -0.0364 -0.0743
  381EMI    H2" 7237   6.188   4.744   3.618 -0.4590  2.2657  0.0947
  381EMI    H2" 7238   6.022   4.757   3.550 -1.6367  1.4977 -2.1236
  381EMI    H2" 7239   6.069   4.838   3.690  1.6779  1.0050 -1.2862
  382EMI     N1 7240   1.827   3.413   3.363 -0.1469 -0.5793 -0.5180
  382EMI     C2 7241   1.901   3.323   3.292 -0.8011  0.7522 -0.3702
  382EMI     N3 7242   1.870   3.337   3.159  0.1617  0.5062  0.1856
  382EMI     C4 7243   1.766   3.425   3.155  0.3386  0.0339  0.2925
  382EMI     C5 7244   1.743   3.477   3.278  0.5345 -0.2801  0.9388
  382EMI     H2 7245   1.974   3.252   3.326  0.5383  0.0503 -0.4655
  382EMI     H4 7246   1.713   3.449   3.065 -0.5256  1.5848  0.0864
  382EMI     H5 7247   1.668   3.540   3.315 -1.5038 -0.2418  0.6145
  382EMI    C1' 7248   1.908   3.250   3.047  0.0279 -0.6919 -0.1261
  382EMI    H1' 7249   1.813   3.218   3.003  1.2428  3.6581 -0.4324
  382EMI    H1' 7250   1.963   3.299   2.966  0.3113  2.9065 -0.4315
  382EMI    H1' 7251   1.959   3.159   3.085  2.1127 -0.6948 -0.5636
  382EMI    C1" 7252   1.822   3.428   3.503 -0.6653  0.6291  0.1597
  382EMI    H1" 7253   1.730   3.470   3.524  0.4342 -0.6972  1.0814
  382EMI    H1" 7254   1.903   3.490   3.529  0.8365 -1.7929 -0.1100
  382EMI    C2" 7255   1.821   3.296   3.572 -0.1521  0.1430 -0.4829
  382EMI    H2" 7256   1.824   3.308   3.682 -1.5411 -1.7652  0.9512
  382EMI    H2" 7257   1.725   3.252   3.546  1.8324 -1.3740  0.2740
  382EMI    H2" 7258   1.899   3.224   3.535  0.7309  0.7462 -0.5965
  383EMI     N1 7259   5.612   3.774   5.652 -0.2229  0.2001 -0.1401
  383EMI     C2 7260   5.741   3.811   5.641  0.4628 -0.0782  0.2336
  383EMI     N3 7261   5.798   3.832   5.759  0.4100  0.0022 -0.0783
  383EMI     C4 7262   5.699   3.797   5.853 -0.5380 -0.3789  0.2063
  383EMI     C5 7263   5.584   3.769   5.787 -0.0767  0.9426  0.4206
  383EMI     H2 7264   5.804   3.816   5.553  1.3518  1.3828  0.4057
  383EMI     H4 7265   5.707   3.813   5.957 -0.3827 -0.2193 -0.0861
  383EMI     H5 7266   5.492   3.736   5.830 -0.7481  1.5748 -1.7771
  383EMI    C1' 7267   5.937   3.876   5.784 -0.1460  0.0669 -0.8423
  383EMI    H1' 7268   5.937   3.970   5.828  1.8673 -1.9483 -1.2370
  383EMI    H1' 7269   5.995   3.801   5.843 -0.1540 -0.1075  0.6893
  383EMI    H1' 7270   5.981   3.875   5.686 -1.9912 -1.5472 -1.3615
  383EMI    C1" 7271   5.505   3.736   5.553 -0.6695 -0.1191 -0.5256
  383EMI    H1" 7272   5.454   3.648   5.591  0.6828  0.9022  2.2146
  383EMI    H1" 7273   5.552   3.708   5.453  0.0109 -1.8792  0.5730
  383EMI    C2" 7274   5.405   3.845   5.542 -0.4941 -0.9136 -0.7178
  383EMI    H2" 7275   5.449   3.934   5.499  0.6857 -1.9895  3.8891
  383EMI    H2" 7276   5.329   3.808   5.474 -1.0538  1.3346  0.3454
  383EMI    H2" 7277   5.356   3.868   5.637 -2.3947 -0.9630  0.9645
  384EMI     N1 7278   4.937   0.264   4.422  0.3249 -0.6345 -0.1932
  384EMI     C2 7279   4.853   0.229   4.322  0.8138  0.5073  0.5129
  384EMI     N3 7280   4.760   0.145   4.373  0.6604 -0.4472 -0.6202
  384EMI     C4 7281   4.796   0.118   4.499 -0.3781  0.3150 -0.1269
  384EMI     C5 7282   4.906   0.188   4.531  0.5856  0.4317 -0.7104
  384EMI     H2 7283   4.848   0.269   4.216 -0.8489 -1.3198 -0.8584
  384EMI     H4 7284   4.727   0.065   4.561 -0.6053  0.3046  1.4542
  384EMI     H5 7285   4.952   0.181   4.627 -0.2379 -1.0130  3.5359
  384EMI    C1' 7286   4.653   0.075   4.310  0.2251 -0.2262 -0.3686
  384EMI    H1' 7287   4.627   0.125   4.216  3.9235  1.3144 -0.5171
  384EMI    H1' 7288   4.684  -0.023   4.295  1.1582  0.0302 -0.0880
  384EMI    H1' 7289   4.576   0.097   4.385 -2.7553 -2.4180 -1.0000
  384EMI    C1" 7290   5.051   0.354   4.407 -0.3162 -0.0605 -0.3343
  384EMI    H1" 7291   5.048   0.448   4.463 -1.1168  0.0873 -3.8419
  384EMI    H1" 7292   5.061   0.380   4.309  2.9209 -0.0018  2.1161
  384EMI    C2" 7293   5.184   0.294   4.450  0.2002 -0.3535 -0.0602
  384EMI    H2" 7294   5.195   0.198   4.411  0.8263  0.3990  1.3591
  384EMI    H2" 7295   5.265   0.356   4.419  0.7141 -0.0720  1.5147
  384EMI    H2" 7296   5.179   0.280   4.562  0.7120 -0.4441  0.9770
  385EMI     N1 7297   0.963   3.380   3.685  0.0566 -0.6527 -0.4206
  385EMI     C2 7298   1.008   3.281   3.609  0.3062  0.0720  0.5317
  385EMI     N3 7299   1.063   3.321   3.497  0.0735  0.1843  0.1172
  385EMI     C4 7300   1.050   3.458   3.491  0.1964 -0.0442  0.1166
  385EMI     C5 7301   0.990   3.497   3.609  0.7043  0.7104  0.7112
  385EMI     H2 7302   1.010   3.180   3.644  0.3444  2.5330 -0.0015
  385EMI     H4 7303   1.085   3.531   3.418  2.0077  0.2607 -1.5238
  385EMI     H5 7304   0.966   3.598   3.631  1.3254  0.3534  1.0307
  385EMI    C1' 7305   1.117   3.242   3.384  0.1003  0.4243  0.1535
  385EMI    H1' 7306   1.188   3.166   3.429 -0.0293 -2.3570  1.8689
  385EMI    H1' 7307   1.038   3.193   3.331 -1.3986 -0.1401  1.3070
  385EMI    H1' 7308   1.162   3.304   3.314 -2.4776  0.4671 -2.0073
  385EMI    C1" 7309   0.881   3.375   3.807 -0.0523 -1.1782 -0.6951
  385EMI    H1" 7310   0.934   3.438   3.878  0.5425  1.5721  0.3823
  385EMI    H1" 7311   0.869   3.272   3.833 -0.9506 -0.2583  0.8116
  385EMI    C2" 7312   0.742   3.433   3.798  0.4824 -0.3987  0.0930
  385EMI    H2" 7313   0.677   3.372   3.734  0.0665 -0.4840  1.5490
  385EMI    H2" 7314   0.704   3.431   3.894  0.8863  0.4373  0.6972
  385EMI    H2" 7315   0.752   3.534   3.772 -1.8989  0.0416  1.8424
  386EMI     N1 7316   2.040   4.508   0.732 -0.1580  0.1143  0.4307
  386EMI     C2 7317   2.157   4.454   0.742 -0.2539  0.3564 -0.2675
  386EMI     N3 7318   2.229   4.467   0.630 -1.1068 -0.6172  0.6536
  386EMI     C4 7319   2.159   4.541   0.541 -0.4129  0.1724  0.0609
  386EMI     C5 7320   2.038   4.561   0.602 -0.3329  0.2151 -0.6767
  386EMI     H2 7321   2.192   4.390   0.826 -0.0235 -1.6067  2.0471
  386EMI     H4 7322   2.200   4.571   0.448 -1.1397 -2.6869 -0.5324
  386EMI     H5 7323   1.954   4.617   0.565 -2.8087 -1.1494 -1.0139
  386EMI    C1' 7324   2.357   4.403   0.592 -0.4206 -0.2194 -0.5912
  386EMI    H1' 7325   2.363   4.388   0.478  3.7996  2.3563 -0.8535
  386EMI    H1' 7326   2.436   4.466   0.623 -1.8595 -0.6594  0.9564
  386EMI    H1' 7327   2.376   4.312   0.641  0.9287  1.3981 -0.9712
  386EMI    C1" 7328   1.940   4.540   0.832  0.8107  0.0508  0.1790
  386EMI    H1" 7329   1.930   4.645   0.820  1.2259  2.6812 -2.7938
  386EMI    H1" 7330   1.973   4.512   0.931 -1.1209 -1.2280  1.9245
  386EMI    C2" 7331   1.802   4.481   0.792  0.1669  0.2663 -0.2021
  386EMI    H2" 7332   1.737   4.483   0.875  3.9637 -0.9992 -0.8474
  386EMI    H2" 7333   1.752   4.543   0.723  1.1424  1.3424 -0.7722
  386EMI    H2" 7334   1.812   4.386   0.756 -0.2239  2.1142  0.1850
  387EMI     N1 7335   6.590   4.345   2.955  0.2335 -0.7899 -0.3465
  387EMI     C2 7336   6.672   4.265   3.033  1.3135  0.6836  0.0702
  387EMI     N3 7337   6.671   4.319   3.153  0.6196 -0.1435 -0.7137
  387EMI     C4 7338   6.585   4.430   3.155 -0.2606  0.4790 -0.6522
  387EMI     C5 7339   6.529   4.444   3.035 -0.4439 -0.9020 -0.0896
  387EMI     H2 7340   6.726   4.176   3.002 -2.3608  2.0148  2.0342
  387EMI     H4 7341   6.563   4.482   3.242 -2.3941 -3.1918  0.0203
  387EMI     H5 7342   6.463   4.527   3.009  0.5157 -2.6390  1.1736
  387EMI    C1' 7343   6.744   4.280   3.269  0.1373 -0.3631 -0.5900
  387EMI    H1' 7344   6.767   4.369   3.320 -2.5764 -1.0427  1.7240
  387EMI    H1' 7345   6.680   4.218   3.336 -1.0054  0.4060  1.5289
  387EMI    H1' 7346   6.833   4.228   3.234  1.2137  0.5846 -1.9565
  387EMI    C1" 7347   6.559   4.317   2.816 -0.6048 -0.3092 -0.0501
  387EMI    H1" 7348   6.627   4.244   2.775 -0.7134 -2.4169  0.1289
  387EMI    H1" 7349   6.561   4.404   2.752 -0.3295 -0.4303  0.1195
  387EMI    C2" 7350   6.418   4.249   2.813  0.0743 -0.0509 -0.0175
  387EMI    H2" 7351   6.398   4.244   2.704  1.3499 -1.6155 -0.9399
  387EMI    H2" 7352   6.432   4.150   2.860  0.2588  0.4454 -0.1821
  387EMI    H2" 7353   6.340   4.314   2.862 -3.8148  0.0664  0.0657
  388EMI     N1 7354   5.250   3.369   6.329 -0.5256  0.2998 -0.1406
  388EMI     C2 7355   5.359   3.313   6.281  0.5070  0.9370  0.3267
  388EMI     N3 7356   5.324   3.254   6.165 -0.4480  0.1237  0.1522
  388EMI     C4 7357   5.189   3.273   6.149 -0.1827 -0.5342  0.6993
  388EMI     C5 7358   5.145   3.352   6.247  1.0321  0.4022 -0.6607
  388EMI     H2 7359   5.460   3.314   6.318  0.5759  1.3687  0.3310
  388EMI     H4 7360   5.135   3.242   6.061 -0.2491 -0.7122  3.2720
  388EMI     H5 7361   5.038   3.373   6.262  2.0097  0.6656 -1.7837
  388EMI    C1' 7362   5.406   3.164   6.087  0.1276 -0.1567  0.3062
  388EMI    H1' 7363   5.491   3.119   6.137  1.9530  0.0423  1.1876
  388EMI    H1' 7364   5.342   3.090   6.047  3.2366  0.4482  2.0061
  388EMI    H1' 7365   5.450   3.223   6.004  0.8076 -2.0251 -1.6834
  388EMI    C1" 7366   5.241   3.455   6.448 -0.2263 -0.1209 -0.4179
  388EMI    H1" 7367   5.140   3.503   6.441 -0.0551  1.4978 -0.8203
  388EMI    H1" 7368   5.317   3.529   6.443 -0.8213  0.7321  0.5047
  388EMI    C2" 7369   5.254   3.375   6.578 -0.4096  0.9697  0.3924
  388EMI    H2" 7370   5.264   3.441   6.662  0.0487 -0.5792  0.1696
  388EMI    H2" 7371   5.175   3.299   6.591  0.0527 -1.5167 -0.2694
  388EMI    H2" 7372   5.347   3.321   6.572 -2.1997 -0.7004  0.7322
  389EMI     N1 7373   4.529   1.261   5.611 -0.5162  0.1776 -0.1743
  389EMI     C2 7374   4.524   1.264   5.750 -0.9417  0.9265  0.1886
  389EMI     N3 7375   4.475   1.381   5.785  0.4525 -0.1818 -0.0070
  389EMI     C4 7376   4.446   1.451   5.670  0.5010  0.2613 -0.0097
  389EMI     C5 7377   4.473   1.375   5.559  0.2354 -0.5887  0.3260
  389EMI     H2 7378   4.567   1.186   5.815 -1.1068  0.8415  1.7609
  389EMI     H4 7379   4.397   1.549   5.683 -0.3375 -3.3004 -0.7252
  389EMI     H5 7380   4.457   1.400   5.459 -1.9543 -2.9168  1.1300
  389EMI    C1' 7381   4.473   1.450   5.915 -0.1603  0.3455  0.1431
  389EMI    H1' 7382   4.579   1.483   5.927  2.1922 -0.8462 -0.9773
  389EMI    H1' 7383   4.404   1.529   5.904 -1.1143  0.3851  2.5522
  389EMI    H1' 7384   4.431   1.382   5.991  2.9568  0.2175 -3.1579
  389EMI    C1" 7385   4.581   1.142   5.531  0.0610 -0.8452  0.4282
  389EMI    H1" 7386   4.606   1.152   5.426 -1.0807 -2.4290 -1.1575
  389EMI    H1" 7387   4.500   1.067   5.538  2.2307  2.8783  3.4003
  389EMI    C2" 7388   4.705   1.092   5.598  0.0702  0.2453 -0.3783
  389EMI    H2" 7389   4.687   1.075   5.701  2.3351  3.2762  1.0783
  389EMI    H2" 7390   4.738   1.004   5.558 -0.0246  2.2164 -0.0683
  389EMI    H2" 7391   4.781   1.165   5.577 -2.6182 -1.7848 -1.5318
  390EMI     N1 7392   1.929   6.141   0.238 -0.3957  0.7765  0.2060
  390EMI     C2 7393   1.847   6.050   0.173 -0.4267 -0.1288 -0.1934
  390EMI     N3 7394   1.848   5.935   0.238 -0.1848 -1.1845  0.0064
  390EMI     C4 7395   1.911   5.950   0.353  0.7048  0.2114  0.6880
  390EMI     C5 7396   1.959   6.075   0.357  0.0088  0.9420  0.0054
  390EMI     H2 7397   1.818   6.060   0.076  0.6907 -2.8596  1.6830
  390EMI     H4 7398   1.921   5.871   0.423 -2.0211  0.3904  0.1913
  390EMI     H5 7399   2.019   6.111   0.441  2.5115 -1.2173  0.9877
  390EMI    C1' 7400   1.781   5.816   0.194 -0.0170  0.3576 -0.7073
  390EMI    H1' 7401   1.691   5.843   0.132 -0.1609 -0.5283 -0.2755
  390EMI    H1' 7402   1.852   5.753   0.144 -4.1452 -2.0736 -2.6162
  390EMI    H1' 7403   1.745   5.764   0.283  1.1147  0.7269 -2.6725
  390EMI    C1" 7404   1.987   6.268   0.199  0.6105 -0.2917  0.0699
  390EMI    H1" 7405   2.085   6.247   0.163 -1.4336 -1.6589  3.3386
  390EMI    H1" 7406   2.004   6.334   0.283  0.2442 -0.4774  2.1572
  390EMI    C2" 7407   1.905   6.323   0.084 -0.1096  0.5918  0.7686
  390EMI    H2" 7408   1.805   6.352   0.117 -1.0319  3.0893  1.8357
  390EMI    H2" 7409   1.950   6.407   0.037 -1.1628 -0.7355  2.1227
  390EMI    H2" 7410   1.902   6.243   0.012 -0.3776 -0.3382  2.0956
  391EMI     N1 7411   6.732   4.453   0.342 -1.0066 -0.1546 -0.4338
  391EMI     C2 7412   6.799   4.383   0.248  0.4025 -0.0326  0.1159
  391EMI     N3 7413   6.783   4.435   0.127 -0.3054  0.1144 -0.1713
  391EMI     C4 7414   6.707   4.552   0.143 -0.4689  0.3723 -0.3489
  391EMI     C5 7415   6.678   4.563   0.277 -0.4632  0.2430 -0.1900
  391EMI     H2 7416   6.848   4.297   0.273  1.6996 -0.2118  1.6417
  391EMI     H4 7417   6.675   4.621   0.059  1.6361 -1.3012 -1.8800
  391EMI     H5 7418   6.626   4.640   0.324 -1.5865  1.5316 -0.9111
  391EMI    C1' 7419   6.843   4.395  -0.002 -0.0813 -0.0363  0.4183
  391EMI    H1' 7420   6.770   4.370  -0.078  1.9616  0.6447 -0.4966
  391EMI    H1' 7421   6.904   4.482  -0.039  1.1470 -1.6975  0.1044
  391EMI    H1' 7422   6.910   4.308   0.017 -0.9202  1.7253 -2.1685
  391EMI    C1" 7423   6.735   4.442   0.486 -0.0838  0.2754  0.1480
  391EMI    H1" 7424   6.747   4.335   0.494  0.1832  1.4707 -4.1336
  391EMI    H1" 7425   6.637   4.464   0.534  0.1555  1.5084 -2.2115
  391EMI    C2" 7426   6.847   4.526   0.548  0.2684 -0.2802 -0.6864
  391EMI    H2" 7427   6.860   4.503   0.656  1.1940  0.3724 -0.5350
  391EMI    H2" 7428   6.930   4.496   0.492 -1.6742  0.5529  1.0829
  391EMI    H2" 7429   6.833   4.637   0.528  1.0644 -1.9771 -0.8281
  392EMI     N1 7430   2.225   5.707   1.735  0.5313  0.8674  0.0588
  392EMI     C2 7431   2.227   5.740   1.606 -0.1959  0.9217  0.3759
  392EMI     N3 7432   2.175   5.863   1.583  0.4372 -0.1439 -0.9388
  392EMI     C4 7433   2.147   5.910   1.707  0.4288 -0.2980 -0.5101
  392EMI     C5 7434   2.167   5.816   1.800 -0.3945  0.0818 -0.3195
  392EMI     H2 7435   2.259   5.677   1.525 -1.3173  2.0082 -0.8145
  392EMI     H4 7436   2.108   6.011   1.716  4.3801  1.1585 -0.7286
  392EMI     H5 7437   2.148   5.828   1.903 -2.2889 -1.6364  0.7682
  392EMI    C1' 7438   2.130   5.922   1.455 -1.0543 -0.3500  0.1736
  392EMI    H1' 7439   2.062   5.851   1.413 -2.8969  0.8705 -2.1924
  392EMI    H1' 7440   2.087   6.015   1.478 -2.4362 -0.9772 -1.2262
  392EMI    H1' 7441   2.228   5.934   1.398  0.1421  1.7646  0.0496
  392EMI    C1" 7442   2.245   5.585   1.807  0.4157  0.7300  0.0497
  392EMI    H1" 7443   2.188   5.506   1.769 -0.1393  1.8789 -0.5058
  392EMI    H1" 7444   2.209   5.602   1.912  1.3121 -1.7142  1.3671
  392EMI    C2" 7445   2.390   5.550   1.795  0.2653 -0.2640 -0.4546
  392EMI    H2" 7446   2.459   5.642   1.794  0.4983 -1.1750  0.9819
  392EMI    H2" 7447   2.426   5.493   1.886  3.4037  0.3872  1.9284
  392EMI    H2" 7448   2.402   5.484   1.711  1.7619 -0.1825 -0.2909
  393EMI     N1 7449   5.653   5.072   5.293  0.4666 -0.1191  0.9622
  393EMI     C2 7450   5.685   5.107   5.419  0.0659 -0.1372 -0.2746
  393EMI     N3 7451   5.593   5.191   5.470 -0.3322 -0.5164  0.6507
  393EMI     C4 7452   5.490   5.203   5.378  0.3158  0.2237 -0.2608
  393EMI     C5 7453   5.526   5.134   5.267 -0.2981 -0.3104  0.4473
  393EMI     H2 7454   5.776   5.077   5.465  0.0630  0.2668  0.4637
  393EMI     H4 7455   5.397   5.257   5.387  0.1733  1.4548  0.5876
  393EMI     H5 7456   5.470   5.133   5.175  0.0094 -2.5007  0.5678
  393EMI    C1' 7457   5.601   5.281   5.586 -0.0922 -0.7302  0.6026
  393EMI    H1' 7458   5.707   5.295   5.618  1.1447 -0.1545  0.8508
  393EMI    H1' 7459   5.577   5.378   5.547  4.1162  1.7063 -3.2382
  393EMI    H1' 7460   5.530   5.246   5.659 -0.9663 -0.0073  1.0969
  393EMI    C1" 7461   5.727   4.990   5.195  0.5928 -0.2458  0.1220
  393EMI    H1" 7462   5.819   5.032   5.160  0.5684 -2.9693 -0.5389
  393EMI    H1" 7463   5.665   4.971   5.105 -0.0157 -0.0533 -3.3444
  393EMI    C2" 7464   5.752   4.854   5.260 -0.3691  0.2958  0.5338
  393EMI    H2" 7465   5.797   4.792   5.188 -1.7803 -0.5862  0.4597
  393EMI    H2" 7466   5.820   4.854   5.347  0.7304 -0.7678 -0.7535
  393EMI    H2" 7467   5.657   4.816   5.289  4.2459  0.3856  0.6902
  394EMI     N1 7468   0.412   5.105   0.079 -0.4004 -0.6653  0.8808
  394EMI     C2 7469   0.537   5.077   0.028 -0.2559 -0.5449  0.7988
  394EMI     N3 7470   0.596   4.991   0.109  0.2652 -0.1693 -0.1774
  394EMI     C4 7471   0.509   4.962   0.212  0.4233  0.1871  0.1062
  394EMI     C5 7472   0.394   5.031   0.195 -0.4734 -0.3800  0.3847
  394EMI     H2 7473   0.587   5.114  -0.064  3.2016  3.0031  0.0279
  394EMI     H4 7474   0.524   4.888   0.297 -0.0908 -2.6297 -1.0495
  394EMI     H5 7475   0.316   5.026   0.270  0.3549  1.8219  0.4304
  394EMI    C1' 7476   0.724   4.928   0.096  0.1134  0.0815  0.2612
  394EMI    H1' 7477   0.807   4.992   0.120 -0.1052  0.3353 -1.4932
  394EMI    H1' 7478   0.722   4.840   0.164  0.7742 -2.1229 -1.4080
  394EMI    H1' 7479   0.733   4.884  -0.001  1.6151 -2.0790 -1.3909
  394EMI    C1" 7480   0.314   5.194   0.017 -0.9742 -0.3789 -0.4442
  394EMI    H1" 7481   0.329   5.221  -0.083  0.1500 -0.9407  3.6177
  394EMI    H1" 7482   0.324   5.291   0.063  2.1239  0.1085  2.0838
  394EMI    C2" 7483   0.165   5.148   0.024 -0.4769  0.4588  0.2459
  394EMI    H2" 7484   0.109   5.215  -0.036 -1.7062  1.4104  0.3389
  394EMI    H2" 7485   0.163   5.044  -0.005 -0.9266  1.4051 -0.4257
  394EMI    H2" 7486   0.136   5.154   0.128 -1.2298 -1.1102  0.1694
  395EMI     N1 7487   3.894   0.775   0.396  0.3392 -0.6358  0.6097
  395EMI     C2 7488   3.784   0.825   0.342  0.7482  0.1129 -0.3291
  395EMI     N3 7489   3.809   0.946   0.293  0.2375  0.2011  0.2137
  395EMI     C4 7490   3.937   0.978   0.319 -0.7108  0.4165  0.3126
  395EMI     C5 7491   3.989   0.874   0.384  0.3232 -0.0695 -0.1150
  395EMI     H2 7492   3.689   0.782   0.346  0.9604  0.8570  1.9374
  395EMI     H4 7493   3.985   1.066   0.293 -0.0475  0.7513  0.9884
  395EMI     H5 7494   4.086   0.875   0.420 -3.2947 -2.6591  1.0083
  395EMI    C1' 7495   3.722   1.040   0.230  0.3923 -0.0262 -0.2384
  395EMI    H1' 7496   3.791   1.122   0.183  0.7199  0.9071  0.3737
  395EMI    H1' 7497   3.646   0.993   0.164  0.5803  1.3550  0.2611
  395EMI    H1' 7498   3.672   1.093   0.311 -0.3759 -1.3368 -0.3694
  395EMI    C1" 7499   3.921   0.648   0.458  0.3344 -0.1301  0.6040
  395EMI    H1" 7500   4.018   0.619   0.435  0.6767 -1.4754 -2.7379
  395EMI    H1" 7501   3.849   0.583   0.408  0.1191 -0.7529  0.4957
  395EMI    C2" 7502   3.896   0.656   0.620  0.3408  0.6064  0.4539
  395EMI    H2" 7503   3.924   0.564   0.665  0.3544 -1.0157 -0.5230
  395EMI    H2" 7504   3.964   0.728   0.655 -0.0360 -0.5911 -0.4486
  395EMI    H2" 7505   3.796   0.687   0.648  1.5459 -1.9962  2.4967
  396EMI     N1 7506   6.726   5.119   5.991 -0.2454 -0.3867 -0.2035
  396EMI     C2 7507   6.593   5.128   5.978 -0.2400  0.0243 -0.4975
  396EMI     N3 7508   6.541   5.047   5.887  0.0406 -0.2719 -0.3263
  396EMI     C4 7509   6.651   4.981   5.833  0.1278  0.6962  0.3067
  396EMI     C5 7510   6.762   5.026   5.900  0.7782  0.0300  0.0898
  396EMI     H2 7511   6.542   5.193   6.048 -0.0545  4.2975 -0.7279
  396EMI     H4 7512   6.653   4.909   5.753  1.3587 -0.4409  2.5197
  396EMI     H5 7513   6.865   4.992   5.877 -1.1305  1.7623 -0.5757
  396EMI    C1' 7514   6.413   5.049   5.814  0.7895  0.5797  0.3860
  396EMI    H1' 7515   6.335   4.993   5.869 -1.2254 -3.0820 -0.4353
  396EMI    H1' 7516   6.382   5.153   5.821 -1.6757 -0.3171  0.5023
  396EMI    H1' 7517   6.430   5.015   5.721 -0.4962  0.8326  2.9100
  396EMI    C1" 7518   6.814   5.205   6.081  0.0662 -0.1810  0.0804
  396EMI    H1" 7519   6.913   5.159   6.100 -0.2398 -1.1318  0.3808
  396EMI    H1" 7520   6.760   5.229   6.175 -0.4878  0.6921 -0.9900
  396EMI    C2" 7521   6.839   5.339   6.015 -1.1245  0.1847  0.1644
  396EMI    H2" 7522   6.739   5.384   5.991 -0.0344 -0.9905 -1.1673
  396EMI    H2" 7523   6.895   5.408   6.082  3.5941  1.5919  1.0220
  396EMI    H2" 7524   6.908   5.345   5.927  0.6022  2.0664  1.8392
  397EMI     N1 7525   3.738   5.912   2.285 -0.4875 -0.0927  0.1808
  397EMI     C2 7526   3.825   5.984   2.214  0.5062 -0.3670  0.4592
  397EMI     N3 7527   3.920   6.028   2.299 -0.7681  0.0631  1.3688
  397EMI     C4 7528   3.893   5.987   2.420  0.4031 -0.2983 -0.6595
  397EMI     C5 7529   3.776   5.923   2.414 -0.4370  0.6217 -0.5917
  397EMI     H2 7530   3.827   5.991   2.105  3.6807 -0.2462 -0.2537
  397EMI     H4 7531   3.959   6.002   2.511  0.2027  0.8074  0.5065
  397EMI     H5 7532   3.726   5.872   2.499 -0.5686  0.8530 -0.3443
  397EMI    C1' 7533   4.040   6.116   2.274 -0.3976  0.3651  0.5561
  397EMI    H1' 7534   4.015   6.206   2.221  0.8401 -2.1923  0.0215
  397EMI    H1' 7535   4.073   6.150   2.371 -0.4702  2.2000  0.3797
  397EMI    H1' 7536   4.124   6.060   2.221 -0.6202  0.9002 -2.6852
  397EMI    C1" 7537   3.621   5.835   2.248 -0.1810  0.1331 -0.0256
  397EMI    H1" 7538   3.601   5.878   2.146  0.0877  0.9267  0.7687
  397EMI    H1" 7539   3.552   5.875   2.326  2.3168  0.4380  2.9279
  397EMI    C2" 7540   3.640   5.687   2.246  1.0454 -0.5165  0.3003
  397EMI    H2" 7541   3.728   5.669   2.190  1.5663 -0.4592 -3.1038
  397EMI    H2" 7542   3.652   5.634   2.337  0.6385 -1.2415  1.0753
  397EMI    H2" 7543   3.551   5.644   2.190  0.0722  2.2265 -1.2266
  398EMI     N1 7544   2.580   5.635   4.372 -0.4503  0.0117 -0.5923
  398EMI     C2 7545   2.524   5.648   4.248  0.2176  0.1337 -0.8928
  398EMI     N3 7546   2.508   5.525   4.191  0.3109 -0.2118 -0.3757
  398EMI     C4 7547   2.551   5.431   4.287  0.3735  0.8339 -0.1393
  398EMI     C5 7548   2.597   5.500   4.398  0.5365  0.6610  0.5352
  398EMI     H2 7549   2.512   5.741   4.188  0.2801 -0.0378 -1.5172
  398EMI     H4 7550   2.552   5.325   4.266 -0.7625  0.4668  0.9393
  398EMI     H5 7551   2.638   5.457   4.493 -0.4137  0.2345  1.5055
  398EMI    C1' 7552   2.454   5.494   4.063  0.0158 -0.4723  0.1303
  398EMI    H1' 7553   2.500   5.557   3.987  1.4484 -0.5341 -0.5824
  398EMI    H1' 7554   2.485   5.390   4.041 -2.9965  0.9601  1.4716
  398EMI    H1' 7555   2.350   5.515   4.069  2.2854 -0.3054  2.1306
  398EMI    C1" 7556   2.612   5.732   4.479  0.1684  0.2688 -0.5655
  398EMI    H1" 7557   2.683   5.803   4.443 -0.7354  0.1559  0.4008
  398EMI    H1" 7558   2.645   5.677   4.570 -0.0503  0.4157 -1.9519
  398EMI    C2" 7559   2.488   5.808   4.529  0.0652  0.3921 -0.3715
  398EMI    H2" 7560   2.488   5.912   4.494 -0.4803  1.0408  0.4783
  398EMI    H2" 7561   2.397   5.761   4.495 -0.5680 -3.8182 -0.2533
  398EMI    H2" 7562   2.478   5.796   4.635 -0.7357 -0.2891 -1.5331
  399EMI     N1 7563   2.289   3.225   2.723  0.2842  0.4616 -0.0297
  399EMI     C2 7564   2.286   3.138   2.620 -0.3667  0.1070  1.3658
  399EMI     N3 7565   2.245   3.018   2.656 -0.3545 -0.2346 -0.0086
  399EMI     C4 7566   2.231   3.024   2.792 -0.0668  0.1221  0.3072
  399EMI     C5 7567   2.261   3.145   2.835  0.2156  0.0655  0.1292
  399EMI     H2 7568   2.336   3.163   2.521  1.1718 -1.5318  1.8451
  399EMI     H4 7569   2.216   2.943   2.861 -1.7044 -0.1957  0.4266
  399EMI     H5 7570   2.277   3.182   2.937 -0.8713 -1.7997  1.9751
  399EMI    C1' 7571   2.234   2.889   2.591 -0.0164  0.0554 -0.6326
  399EMI    H1' 7572   2.314   2.869   2.525 -0.3186  0.4457  0.3794
  399EMI    H1' 7573   2.248   2.816   2.666  0.9386  2.4862  0.8971
  399EMI    H1' 7574   2.134   2.878   2.549 -0.0766 -1.4791  1.5780
  399EMI    C1" 7575   2.344   3.354   2.737 -0.3574  1.1584 -0.4488
  399EMI    H1" 7576   2.421   3.363   2.660  0.1513  2.3121  0.2077
  399EMI    H1" 7577   2.393   3.355   2.836  0.9853 -0.6207 -0.3494
  399EMI    C2" 7578   2.227   3.456   2.729  0.8689 -0.0648  0.5409
  399EMI    H2" 7579   2.165   3.445   2.643  1.4776  1.6781  0.1661
  399EMI    H2" 7580   2.160   3.444   2.804 -2.4066  2.1204 -0.1440
  399EMI    H2" 7581   2.270   3.561   2.718 -0.5159  2.3914 -1.6658
  400EMI     N1 7582   1.639   1.443   4.395  0.7418  0.1817  0.4842
  400EMI     C2 7583   1.770   1.462   4.404  0.0653  0.3409  0.3927
  400EMI     N3 7584   1.803   1.557   4.494 -0.6377  0.3318 -0.1238
  400EMI     C4 7585   1.684   1.604   4.540 -0.2855  0.1640 -0.6336
  400EMI     C5 7586   1.584   1.532   4.482 -0.4679  0.6240 -0.7304
  400EMI     H2 7587   1.833   1.410   4.331 -0.8969  0.8142 -2.0170
  400EMI     H4 7588   1.677   1.677   4.616 -0.2253  0.1955 -0.0692
  400EMI     H5 7589   1.476   1.538   4.487  1.1717  1.7816  2.2045
  400EMI    C1' 7590   1.932   1.619   4.523 -0.0877 -0.6587  0.1404
  400EMI    H1' 7591   1.969   1.601   4.627 -2.1203  1.2876  0.9742
  400EMI    H1' 7592   2.008   1.564   4.458  1.5449 -2.5265  0.9471
  400EMI    H1' 7593   1.931   1.722   4.503  1.4130 -3.5179  0.7903
  400EMI    C1" 7594   1.555   1.360   4.307  0.3990  0.1112 -0.8415
  400EMI    H1" 7595   1.458   1.318   4.356 -0.1474  0.2848 -2.8937
  400EMI    H1" 7596   1.603   1.275   4.256 -0.2350 -0.9177  0.4462
  400EMI    C2" 7597   1.505   1.458   4.198  0.2850 -0.2507  0.1066
  400EMI    H2" 7598   1.443   1.530   4.241  0.0362 -0.5670  1.1866
  400EMI    H2" 7599   1.585   1.501   4.135 -2.1042 -0.7982  2.1888
  400EMI    H2" 7600   1.439   1.407   4.129 -1.3561 -0.9464 -1.5509
  401EMI     N1 7601   2.259   6.508   5.318 -0.4319 -0.3569 -0.2670
  401EMI     C2 7602   2.386   6.545   5.297  0.0698 -0.1623 -0.3670
  401EMI     N3 7603   2.449   6.453   5.230  0.3574  0.5189  0.3820
  401EMI     C4 7604   2.356   6.364   5.198  0.0525  0.2344  0.7881
  401EMI     C5 7605   2.239   6.396   5.246  1.1119  0.2380 -0.3376
  401EMI     H2 7606   2.441   6.632   5.330  2.0473  0.0162 -3.7331
  401EMI     H4 7607   2.366   6.275   5.139  1.4728  1.0088 -1.0953
  401EMI     H5 7608   2.150   6.333   5.223 -0.6059 -0.9075 -0.9087
  401EMI    C1' 7609   2.595   6.438   5.199 -0.0216 -0.1899 -0.2606
  401EMI    H1' 7610   2.633   6.345   5.234  2.2043 -1.6019  3.5961
  401EMI    H1' 7611   2.605   6.458   5.092  3.2716 -0.0319 -0.5416
  401EMI    H1' 7612   2.651   6.509   5.255  2.2215 -0.9760  0.6250
  401EMI    C1" 7613   2.149   6.585   5.371  0.5966 -0.1668  0.1337
  401EMI    H1" 7614   2.158   6.585   5.481  0.0581  0.5677  0.2915
  401EMI    H1" 7615   2.045   6.540   5.343 -1.7587  3.6100  0.3025
  401EMI    C2" 7616   2.152   6.732   5.334  0.1840  0.1233  0.1396
  401EMI    H2" 7617   2.122   6.750   5.233 -2.4695 -1.0633 -0.0632
  401EMI    H2" 7618   2.080   6.787   5.396  1.2698  1.3180 -0.9840
  401EMI    H2" 7619   2.250   6.773   5.351 -0.5259 -1.6024 -0.3471
  402EMI     N1 7620   2.878   0.744   5.420 -0.0890  0.7460 -0.4029
  402EMI     C2 7621   2.885   0.687   5.299 -0.2213 -0.3649  0.1941
  402EMI     N3 7622   2.881   0.556   5.303 -0.3277 -0.1416 -0.4372
  402EMI     C4 7623   2.881   0.519   5.434  0.5392 -1.0246 -0.3465
  402EMI     C5 7624   2.878   0.637   5.506 -0.2158  0.3885 -0.9951
  402EMI     H2 7625   2.880   0.732   5.201  2.0993  1.1908  0.1803
  402EMI     H4 7626   2.869   0.416   5.467  1.1055 -2.2904  1.9263
  402EMI     H5 7627   2.883   0.643   5.616  0.0362  2.4511  2.3644
  402EMI    C1' 7628   2.864   0.457   5.194 -0.3410  0.3663  0.8479
  402EMI    H1' 7629   2.958   0.466   5.132  3.5803  0.4497  0.9384
  402EMI    H1' 7630   2.848   0.354   5.222  0.1929  3.9061 -0.6779
  402EMI    H1' 7631   2.783   0.482   5.131 -1.1701  0.8357  1.0764
  402EMI    C1" 7632   2.844   0.882   5.473 -0.6221  0.0912  0.1556
  402EMI    H1" 7633   2.808   0.879   5.577  1.9180 -0.1986  0.1326
  402EMI    H1" 7634   2.768   0.933   5.418  0.6406  1.1606  0.4356
  402EMI    C2" 7635   2.969   0.974   5.476  0.2351 -0.0368 -0.9752
  402EMI    H2" 7636   2.937   1.057   5.525 -1.8268 -2.7427  0.1334
  402EMI    H2" 7637   3.052   0.924   5.526  0.5201 -1.6058 -0.4360
  402EMI    H2" 7638   3.002   0.994   5.371 -0.4347  0.7914  1.1004
  403EMI     N1 7639   6.106   4.272   4.382  0.0575 -0.1975 -0.3726
  403EMI     C2 7640   6.113   4.355   4.280  0.5225  0.2197  0.4185
  403EMI     N3 7641   6.039   4.325   4.173 -0.1512  0.1918  0.2686
  403EMI     C4 7642   5.991   4.199   4.205  0.5157 -0.3382 -0.2302
  403EMI     C5 7643   6.029   4.167   4.331 -0.5847  0.6050  0.0494
  403EMI     H2 7644   6.167   4.446   4.289  0.5497 -2.6331  0.6493
  403EMI     H4 7645   5.930   4.150   4.130 -0.8373 -0.4270  1.0414
  403EMI     H5 7646   6.021   4.071   4.379  2.7681 -1.4274 -0.4769
  403EMI    C1' 7647   6.002   4.396   4.053 -0.5726  0.4406 -0.2901
  403EMI    H1' 7648   5.902   4.361   4.010 -2.6714  0.9128 -1.0648
  403EMI    H1' 7649   5.995   4.498   4.077  0.3907 -0.8307 -3.1390
  403EMI    H1' 7650   6.086   4.393   3.986 -0.3075  2.0628 -0.8224
  403EMI    C1" 7651   6.143   4.281   4.523 -0.3872 -0.0693 -0.8234
  403EMI    H1" 7652   6.166   4.182   4.553 -2.8123 -1.1938  0.8647
  403EMI    H1" 7653   6.053   4.305   4.576  0.7019  1.0750 -0.8723
  403EMI    C2" 7654   6.238   4.401   4.554 -0.0336 -0.1656 -0.1015
  403EMI    H2" 7655   6.329   4.391   4.492  1.4688  0.9934 -2.9042
  403EMI    H2" 7656   6.187   4.494   4.519  1.2018  0.0803  1.1516
  403EMI    H2" 7657   6.252   4.401   4.661 -0.2026 -0.7813 -1.2657
  404EMI     N1 7658   5.520   4.155   4.680 -0.0792  0.3350 -0.4397
  404EMI     C2 7659   5.630   4.211   4.636 -0.3405  0.2019 -0.3096
  404EMI     N3 7660   5.618   4.253   4.509  0.0693 -0.2168  0.4365
  404EMI     C4 7661   5.489   4.215   4.469 -0.4849 -0.1607 -0.0598
  404EMI     C5 7662   5.431   4.153   4.575 -0.0067 -0.0813 -0.7640
  404EMI     H2 7663   5.717   4.228   4.697 -1.5324  0.2428  1.2686
  404EMI     H4 7664   5.448   4.233   4.371  0.5458 -0.9125 -2.5669
  404EMI     H5 7665   5.328   4.120   4.578  2.9982 -0.4606  0.7709
  404EMI    C1' 7666   5.721   4.311   4.426 -0.8224 -0.1429 -0.7152
  404EMI    H1' 7667   5.809   4.244   4.421  1.2314 -1.8519  1.9117
  404EMI    H1' 7668   5.684   4.339   4.320  1.4230  0.8675 -2.0700
  404EMI    H1' 7669   5.749   4.407   4.472 -1.5778  3.8589  0.6797
  404EMI    C1" 7670   5.486   4.091   4.810  0.4044  0.7219  0.2018
  404EMI    H1" 7671   5.574   4.071   4.867 -0.5468 -1.8740  0.3539
  404EMI    H1" 7672   5.444   3.996   4.789  1.2631 -0.3289  1.0483
  404EMI    C2" 7673   5.394   4.190   4.885 -0.6839  0.4000 -0.0829
  404EMI    H2" 7674   5.344   4.134   4.956  3.9114  0.7622  0.3570
  404EMI    H2" 7675   5.450   4.277   4.931  0.3997  1.2504 -1.8390
  404EMI    H2" 7676   5.315   4.235   4.827  1.6752 -1.0484 -0.9280
  405EMI     N1 7677   4.525   5.103   3.929 -0.3196  0.0190 -0.0409
  405EMI     C2 7678   4.637   5.026   3.929  0.5609  0.1943  0.1987
  405EMI     N3 7679   4.604   4.906   3.977 -0.0324 -0.2564  0.0926
  405EMI     C4 7680   4.477   4.911   4.016  0.0839 -0.1561  0.1306
  405EMI     C5 7681   4.425   5.034   3.990 -0.5161  0.3007 -0.0556
  405EMI     H2 7682   4.728   5.060   3.872 -1.7332 -1.9758  0.4360
  405EMI     H4 7683   4.422   4.838   4.071  2.2644 -0.3416 -3.0246
  405EMI     H5 7684   4.323   5.074   4.020  0.7110  1.7700 -0.0363
  405EMI    C1' 7685   4.692   4.787   3.991 -0.0796  0.5121  0.0194
  405EMI    H1' 7686   4.629   4.708   4.032 -1.3478 -0.3239 -0.3496
  405EMI    H1' 7687   4.735   4.756   3.895  0.9065 -0.4917 -0.3345
  405EMI    H1' 7688   4.764   4.820   4.067  1.2413  0.4058  0.3719
  405EMI    C1" 7689   4.501   5.235   3.872 -0.1236  0.2934  0.6259
  405EMI    H1" 7690   4.400   5.246   3.829 -0.8536 -0.7590 -3.7976
  405EMI    H1" 7691   4.556   5.246   3.779 -0.5239 -1.5605  0.5837
  405EMI    C2" 7692   4.542   5.342   3.979 -0.7236  0.3263  0.5040
  405EMI    H2" 7693   4.529   5.432   3.936  1.7680 -2.3629  0.6683
  405EMI    H2" 7694   4.485   5.343   4.082 -0.8770  2.4048  1.4470
  405EMI    H2" 7695   4.649   5.328   4.009 -2.5071  2.4246  1.7103
  406EMI     N1 7696   0.050   2.394   0.938 -0.2679 -0.1213  0.4367
  406EMI     C2 7697   0.095   2.522   0.925  0.1894  0.1312 -0.2129
  406EMI     N3 7698   0.120   2.550   0.796 -0.3866 -0.0940 -0.4998
  406EMI     C4 7699   0.086   2.437   0.723 -0.5951 -0.7338  0.1032
  406EMI     C5 7700   0.047   2.341   0.811 -0.2211 -0.4085 -0.1143
  406EMI     H2 7701   0.105   2.592   1.006 -0.3138 -0.5314 -2.0992
  406EMI     H4 7702   0.087   2.437   0.610  0.9360  1.3060  0.7499
  406EMI     H5 7703   0.008   2.240   0.783  0.7622  0.1545 -3.0864
  406EMI    C1' 7704   0.160   2.672   0.732  0.0477 -0.4293 -0.9969
  406EMI    H1' 7705   0.074   2.738   0.727 -2.7800 -4.6271  0.0265
  406EMI    H1' 7706   0.245   2.711   0.794  1.6590 -1.0717  3.2698
  406EMI    H1' 7707   0.187   2.636   0.636 -2.5330 -0.5551 -0.7038
  406EMI    C1" 7708  -0.005   2.322   1.049 -0.2296  0.7432  0.3653
  406EMI    H1" 7709   0.057   2.345   1.131  1.8951  3.2863  2.1708
  406EMI    H1" 7710  -0.009   2.217   1.022 -1.8407 -1.4379 -0.9214
  406EMI    C2" 7711  -0.147   2.359   1.086  0.5690  0.4226 -0.3050
  406EMI    H2" 7712  -0.183   2.282   1.162 -0.3828 -1.0352  0.1662
  406EMI    H2" 7713  -0.154   2.456   1.132 -1.4766  2.2955  1.4709
  406EMI    H2" 7714  -0.211   2.356   1.003  1.5932  3.3048  0.4892
  407EMI     N1 7715   4.400   2.643   3.847  0.4405  0.1907  0.1694
  407EMI     C2 7716   4.342   2.740   3.918  0.7648  0.7646 -0.0786
  407EMI     N3 7717   4.349   2.703   4.047  0.1799 -0.2576 -0.0106
  407EMI     C4 7718   4.426   2.589   4.054  0.5616 -0.7865 -0.5782
  407EMI     C5 7719   4.441   2.549   3.931 -0.4166  0.2586  0.1936
  407EMI     H2 7720   4.284   2.815   3.876 -0.5807 -0.5664  2.5769
  407EMI     H4 7721   4.462   2.538   4.146  2.9075  0.7937 -1.4547
  407EMI     H5 7722   4.486   2.459   3.900  3.2244 -0.7884  0.3848
  407EMI    C1' 7723   4.297   2.781   4.166  0.0541 -0.0335 -0.2857
  407EMI    H1' 7724   4.377   2.834   4.214  1.2495  1.2233  0.0874
  407EMI    H1' 7725   4.220   2.851   4.122 -0.3521  0.0799 -0.5643
  407EMI    H1' 7726   4.246   2.710   4.231 -0.1220 -0.8989 -0.6134
  407EMI    C1" 7727   4.398   2.618   3.702  0.1988 -0.7551 -0.2941
  407EMI    H1" 7728   4.345   2.694   3.656 -2.1840 -1.4245 -0.7270
  407EMI    H1" 7729   4.337   2.527   3.678  0.6263  0.4640 -1.0895
  407EMI    C2" 7730   4.537   2.610   3.646 -0.2100  0.0620 -0.3259
  407EMI    H2" 7731   4.581   2.712   3.627  0.2276  0.0979 -0.4235
  407EMI    H2" 7732   4.600   2.555   3.713 -1.8619  2.3361  1.0120
  407EMI    H2" 7733   4.531   2.563   3.551  3.2593 -0.3855  0.1176
  408EMI     N1 7734   3.732   2.580   3.135  0.8204 -0.0261 -0.3672
  408EMI     C2 7735   3.848   2.554   3.073 -0.1199 -0.2617  0.0176
  408EMI     N3 7736   3.945   2.545   3.172  0.4278  0.2595  0.4948
  408EMI     C4 7737   3.881   2.565   3.293  0.4262  0.3434  1.0760
  408EMI     C5 7738   3.753   2.582   3.268 -0.3466 -0.6484 -0.0448
  408EMI     H2 7739   3.867   2.545   2.964  1.5902 -0.8823 -0.4725
  408EMI     H4 7740   3.941   2.564   3.377  2.2761  0.3077 -0.4828
  408EMI     H5 7741   3.673   2.604   3.339 -0.8191  2.7452 -3.0387
  408EMI    C1' 7742   4.089   2.520   3.154  0.5419 -0.2256 -0.4808
  408EMI    H1' 7743   4.150   2.563   3.233 -1.5338 -1.4631 -0.2360
  408EMI    H1' 7744   4.096   2.407   3.161 -1.1052 -2.4678  0.0718
  408EMI    H1' 7745   4.117   2.558   3.054 -2.6307 -0.9138 -1.6326
  408EMI    C1" 7746   3.599   2.609   3.084 -0.3024 -0.3456 -0.1773
  408EMI    H1" 7747   3.530   2.568   3.170 -4.5112  0.5125 -0.1552
  408EMI    H1" 7748   3.567   2.560   2.989 -1.5307  0.2993  1.3580
  408EMI    C2" 7749   3.581   2.762   3.074  0.6606 -0.1847  0.0553
  408EMI    H2" 7750   3.657   2.804   3.007 -0.1168  0.1903 -0.5314
  408EMI    H2" 7751   3.478   2.781   3.052  2.6594  0.0027  1.3876
  408EMI    H2" 7752   3.594   2.805   3.173 -0.3556  1.1911  0.2367
  409EMI     N1 7753   4.133   1.257   4.776  0.5496 -0.4193  0.4057
  409EMI     C2 7754   4.271   1.246   4.783  0.0944  0.4658 -0.2297
  409EMI     N3 7755   4.331   1.331   4.696 -0.9807 -0.5798 -0.2385
  409EMI     C4 7756   4.231   1.391   4.632  0.0907 -0.5749  0.5835
  409EMI     C5 7757   4.108   1.346   4.670  0.7569 -0.5516 -0.2144
  409EMI     H2 7758   4.333   1.181   4.847 -1.2177  0.7351 -0.8717
  409EMI     H4 7759   4.257   1.457   4.556 -0.1616 -0.1969  2.5728
  409EMI     H5 7760   4.011   1.380   4.629 -0.5009  0.9048 -1.1651
  409EMI    C1' 7761   4.473   1.349   4.666 -0.3813  0.7709  0.1452
  409EMI    H1' 7762   4.532   1.291   4.736 -0.3425 -1.8951 -1.2284
  409EMI    H1' 7763   4.493   1.310   4.569 -0.5946  0.5696 -0.9335
  409EMI    H1' 7764   4.508   1.450   4.672 -0.7487  2.0593 -2.1803
  409EMI    C1" 7765   4.032   1.183   4.841 -0.0266 -0.2555 -0.3953
  409EMI    H1" 7766   3.941   1.201   4.786 -2.7594  1.7466 -1.4036
  409EMI    H1" 7767   4.007   1.229   4.938 -1.3709  2.1262 -0.4489
  409EMI    C2" 7768   4.060   1.030   4.847  0.3580 -0.4498 -0.0817
  409EMI    H2" 7769   4.042   0.981   4.757 -0.8602  0.6143  1.2107
  409EMI    H2" 7770   4.164   1.020   4.882  0.4283 -0.8194 -0.2155
  409EMI    H2" 7771   3.998   0.997   4.932  1.5218 -3.7628 -0.8628
  410EMI     N1 7772   5.668   6.195   4.874  0.0471 -0.3520 -0.6184
  410EMI     C2 7773   5.685   6.325   4.902  0.1912  0.6578  0.2240
  410EMI     N3 7774   5.797   6.340   4.973 -1.3414  0.0599  0.8332
  410EMI     C4 7775   5.851   6.218   4.987  0.2297  0.6768  0.2220
  410EMI     C5 7776   5.764   6.126   4.941 -0.5581 -0.0054 -0.2391
  410EMI     H2 7777   5.618   6.409   4.875  0.1349 -1.0747  1.7538
  410EMI     H4 7778   5.942   6.200   5.042  3.0538 -1.6280  0.8204
  410EMI     H5 7779   5.775   6.017   4.939 -2.3450 -2.1370  1.3923
  410EMI    C1' 7780   5.839   6.467   5.036  0.0979  0.0288 -0.4564
  410EMI    H1' 7781   5.851   6.454   5.139 -1.9534  2.6090 -3.1462
  410EMI    H1' 7782   5.918   6.507   4.972  0.1197  3.3705 -2.3765
  410EMI    H1' 7783   5.758   6.535   5.030 -1.4041 -0.1416  3.5722
  410EMI    C1" 7784   5.546   6.139   4.818 -0.1509 -0.0311 -0.6302
  410EMI    H1" 7785   5.560   6.033   4.811  1.2129  3.0915  1.5114
  410EMI    H1" 7786   5.524   6.185   4.720 -0.4791 -0.3839 -0.8497
  410EMI    C2" 7787   5.428   6.180   4.911  0.7775  0.8155  0.0682
  410EMI    H2" 7788   5.338   6.124   4.882  0.4052  0.4216 -1.6692
  410EMI    H2" 7789   5.445   6.152   5.016  0.2878 -0.6490 -2.3323
  410EMI    H2" 7790   5.418   6.284   4.917  0.5061 -0.6614  0.0460
  411EMI     N1 7791   0.086   5.162   3.001 -0.3472  0.0016  0.1844
  411EMI     C2 7792  -0.044   5.159   2.977  0.1232 -0.2442  0.9075
  411EMI     N3 7793  -0.107   5.259   3.043 -0.4203  0.2022  0.0826
  411EMI     C4 7794  -0.010   5.329   3.112 -0.7005  1.0153 -0.5766
  411EMI     C5 7795   0.107   5.264   3.089 -0.5038  0.0305  0.1215
  411EMI     H2 7796  -0.080   5.103   2.898  0.5384 -0.0416  2.1188
  411EMI     H4 7797  -0.033   5.410   3.182  0.4345  2.4912  0.4426
  411EMI     H5 7798   0.204   5.290   3.139  2.3827 -0.5538  0.8538
  411EMI    C1' 7799  -0.250   5.295   3.038 -0.3006  0.6129  0.0370
  411EMI    H1' 7800  -0.311   5.200   3.048 -3.4386  0.0052  1.1207
  411EMI    H1' 7801  -0.275   5.370   3.113 -1.6963  0.8370 -0.5656
  411EMI    H1' 7802  -0.258   5.342   2.944 -0.9688  0.2102  1.5134
  411EMI    C1" 7803   0.199   5.082   2.944  0.3447 -0.2567 -0.3914
  411EMI    H1" 7804   0.174   4.984   2.907 -1.6269  2.0757 -1.2245
  411EMI    H1" 7805   0.270   5.068   3.022 -0.8846  0.6096 -0.2205
  411EMI    C2" 7806   0.263   5.175   2.840 -1.0303 -0.4697 -0.6707
  411EMI    H2" 7807   0.199   5.207   2.758 -0.1843  2.6700 -1.3797
  411EMI    H2" 7808   0.302   5.267   2.885  0.9187 -1.2562  1.6189
  411EMI    H2" 7809   0.347   5.125   2.798 -1.4625  1.5905 -0.8862
  412EMI     N1 7810   2.855   3.241   3.065 -0.1887  0.5686  0.6048
  412EMI     C2 7811   2.979   3.269   3.108  0.2200 -0.1510 -0.6161
  412EMI     N3 7812   2.978   3.282   3.243 -0.3790  0.3638  0.2397
  412EMI     C4 7813   2.850   3.254   3.281 -0.0060 -0.7864 -1.2521
  412EMI     C5 7814   2.773   3.235   3.178  0.0262 -0.0284  0.9053
  412EMI     H2 7815   3.066   3.286   3.053  2.8415  0.4645 -0.9953
  412EMI     H4 7816   2.814   3.247   3.377 -2.0354  0.2651  0.6454
  412EMI     H5 7817   2.665   3.213   3.175  0.5584  0.5361 -1.2762
  412EMI    C1' 7818   3.084   3.323   3.333  0.5724 -0.6605 -0.8274
  412EMI    H1' 7819   3.163   3.373   3.268  1.7946  2.4314 -0.1046
  412EMI    H1' 7820   3.048   3.403   3.398 -1.5289 -0.4543 -1.7140
  412EMI    H1' 7821   3.123   3.240   3.402 -2.5305 -1.4845  0.2929
  412EMI    C1" 7822   2.810   3.233   2.922 -0.2198 -0.3661 -0.3905
  412EMI    H1" 7823   2.757   3.145   2.907  0.4874 -0.1327 -0.6194
  412EMI    H1" 7824   2.893   3.226   2.854  0.1625  1.0645  2.6329
  412EMI    C2" 7825   2.731   3.364   2.907  0.6553  0.4121 -0.4513
  412EMI    H2" 7826   2.682   3.365   2.805  0.1116  1.2417 -1.1066
  412EMI    H2" 7827   2.644   3.357   2.976 -0.8717  2.6070 -1.0806
  412EMI    H2" 7828   2.800   3.451   2.925  2.1959 -1.7291  2.9668
  413EMI     N1 7829   5.764   5.119   3.746 -0.4256  0.3430  0.1002
  413EMI     C2 7830   5.786   5.166   3.619  0.4197  0.2423  0.7089
  413EMI     N3 7831   5.838   5.068   3.543 -0.3939  0.1258 -0.1805
  413EMI     C4 7832   5.819   4.950   3.612 -0.2936 -0.6929  0.1355
  413EMI     C5 7833   5.782   4.979   3.737  0.2688 -0.0273  0.3483
  413EMI     H2 7834   5.797   5.276   3.591  3.1238  2.1675  1.3332
  413EMI     H4 7835   5.835   4.856   3.562 -0.2507 -1.2003 -1.1735
  413EMI     H5 7836   5.763   4.909   3.814 -0.0923 -0.7667 -1.3442
  413EMI    C1' 7837   5.880   5.065   3.401 -0.3133  0.2384 -0.0588
  413EMI    H1' 7838   5.971   5.005   3.399 -2.7737  0.6875 -1.1406
  413EMI    H1' 7839   5.806   5.017   3.341 -1.7265 -1.6669 -1.7209
  413EMI    H1' 7840   5.896   5.170   3.366 -0.0862  2.4466  1.7279
  413EMI    C1" 7841   5.731   5.189   3.872 -0.2197 -0.4805 -0.3628
  413EMI    H1" 7842   5.707   5.109   3.948 -3.6374 -1.5941 -0.5894
  413EMI    H1" 7843   5.648   5.263   3.863  1.4366 -1.2597 -0.6327
  413EMI    C2" 7844   5.860   5.271   3.909  0.3918 -0.4284  0.7879
  413EMI    H2" 7845   5.843   5.316   4.006  4.8406  2.4533  0.0288
  413EMI    H2" 7846   5.950   5.220   3.898 -0.6896  0.4551 -0.0612
  413EMI    H2" 7847   5.857   5.348   3.826  0.0484  0.9995 -3.9422
  414EMI     N1 7848   0.339   3.149   4.866 -0.1312 -0.2780 -0.7870
  414EMI     C2 7849   0.253   3.142   4.969 -0.2257  0.0990 -0.2793
  414EMI     N3 7850   0.221   3.266   5.013  0.3247  0.0341 -0.5540
  414EMI     C4 7851   0.285   3.359   4.929 -0.2838  0.5929  0.0534
  414EMI     C5 7852   0.362   3.286   4.847 -0.0635  0.3806  0.3143
  414EMI     H2 7853   0.216   3.061   5.021  2.1140  0.4441  0.0482
  414EMI     H4 7854   0.286   3.469   4.931  1.2247 -0.2853 -3.2098
  414EMI     H5 7855   0.436   3.326   4.779  0.4434  0.8287  0.5724
  414EMI    C1' 7856   0.140   3.312   5.136 -1.1350  0.1076  0.2330
  414EMI    H1' 7857   0.191   3.397   5.191  0.6504  1.1338  2.6500
  414EMI    H1' 7858   0.042   3.355   5.100 -1.6220  0.2480 -0.8857
  414EMI    H1' 7859   0.132   3.231   5.206  1.2111  3.8118  0.6117
  414EMI    C1" 7860   0.394   3.040   4.783  0.0729  0.6816 -0.0549
  414EMI    H1" 7861   0.380   2.941   4.833 -0.0230  0.5911 -0.1655
  414EMI    H1" 7862   0.503   3.058   4.775 -0.7255 -3.2189 -1.5761
  414EMI    C2" 7863   0.330   3.027   4.646  0.3502 -0.2309 -0.2308
  414EMI    H2" 7864   0.354   3.112   4.590 -2.3407 -2.1994 -1.5472
  414EMI    H2" 7865   0.370   2.945   4.590 -1.8152 -1.1720 -2.5061
  414EMI    H2" 7866   0.227   3.002   4.652 -0.4203 -1.3461  0.2267
  415EMI     N1 7867   2.526   6.268   0.261 -0.3501  0.1510  0.3608
  415EMI     C2 7868   2.658   6.258   0.231 -0.1907 -0.1433 -0.0336
  415EMI     N3 7869   2.731   6.216   0.334  0.5912  0.0757  0.4965
  415EMI     C4 7870   2.640   6.181   0.438  0.5509 -0.3343 -0.3566
  415EMI     C5 7871   2.516   6.216   0.385  0.4504 -0.0193 -0.7531
  415EMI     H2 7872   2.701   6.287   0.140  0.3214 -0.0527  0.7393
  415EMI     H4 7873   2.663   6.131   0.539 -1.1718 -1.3567  0.8935
  415EMI     H5 7874   2.419   6.192   0.424 -1.1586 -1.6652 -3.2741
  415EMI    C1' 7875   2.877   6.197   0.337 -0.8942  0.2054 -0.6286
  415EMI    H1' 7876   2.917   6.244   0.242 -1.0255  1.1926 -1.9014
  415EMI    H1' 7877   2.919   6.257   0.422 -2.0177  1.2292 -1.0883
  415EMI    H1' 7878   2.890   6.095   0.353 -3.9739 -1.0215 -0.2576
  415EMI    C1" 7879   2.410   6.320   0.188  0.0482  0.2319  0.6645
  415EMI    H1" 7880   2.438   6.414   0.136 -4.1338  0.0356  0.8602
  415EMI    H1" 7881   2.334   6.351   0.267 -2.6910 -0.9234 -0.1074
  415EMI    C2" 7882   2.359   6.230   0.080  0.2422  0.4676 -0.0509
  415EMI    H2" 7883   2.349   6.128   0.114 -0.6810  0.0168 -0.5838
  415EMI    H2" 7884   2.258   6.258   0.060  2.4007  0.1422  2.0235
  415EMI    H2" 7885   2.424   6.222  -0.004  1.3143 -1.3551  1.4734
  416EMI     N1 7886   3.519   5.789   1.768  0.0644  0.8309  0.4899
  416EMI     C2 7887   3.503   5.912   1.823 -0.2991  0.0148  0.3233
  416EMI     N3 7888   3.376   5.945   1.840  0.1370  0.2765  0.6835
  416EMI     C4 7889   3.307   5.832   1.799 -0.9790  0.6307  0.0167
  416EMI     C5 7890   3.396   5.733   1.761 -0.0365  0.1669 -0.1001
  416EMI     H2 7891   3.577   5.968   1.874 -1.7281  0.3199 -1.6493
  416EMI     H4 7892   3.202   5.816   1.812  0.5548  0.2830 -0.2080
  416EMI     H5 7893   3.368   5.630   1.729  1.0981  1.0026  0.5492
  416EMI    C1' 7894   3.313   6.063   1.900  0.1431  0.2414  0.0446
  416EMI    H1' 7895   3.349   6.148   1.839  0.7085  0.7385 -2.7492
  416EMI    H1' 7896   3.201   6.056   1.896  2.3355  1.2712 -0.7560
  416EMI    H1' 7897   3.350   6.075   1.998 -1.6769  2.4669 -0.0752
  416EMI    C1" 7898   3.638   5.701   1.751  0.1460 -1.3305 -0.0549
  416EMI    H1" 7899   3.722   5.758   1.779 -1.7618 -0.2690  0.5085
  416EMI    H1" 7900   3.659   5.676   1.650 -0.5691  0.2297  0.8011
  416EMI    C2" 7901   3.643   5.588   1.847 -0.8060 -0.1225 -0.4151
  416EMI    H2" 7902   3.639   5.629   1.947  0.7766 -1.8297 -1.3130
  416EMI    H2" 7903   3.572   5.512   1.828  1.1195  1.4886  0.1987
  416EMI    H2" 7904   3.737   5.535   1.844 -2.3111 -2.3873  0.8130
  417EMI     N1 7905   5.954   6.605   1.943  0.1925 -0.8839 -0.2036
  417EMI     C2 7906   6.052   6.550   2.024  0.5442  0.1720  1.2278
  417EMI     N3 7907   6.006   6.539   2.146 -0.4972  0.0521 -0.4606
  417EMI     C4 7908   5.878   6.594   2.153  0.1615  0.3218  0.9108
  417EMI     C5 7909   5.844   6.628   2.028 -0.5491 -0.5573  0.9257
  417EMI     H2 7910   6.151   6.523   1.981  0.1772  0.2319 -2.7487
  417EMI     H4 7911   5.825   6.616   2.245 -3.2120 -1.4315 -1.0691
  417EMI     H5 7912   5.746   6.676   2.012 -0.2101 -2.3624  1.5811
  417EMI    C1' 7913   6.073   6.490   2.267 -0.3751 -0.4576 -0.6135
  417EMI    H1' 7914   6.082   6.579   2.335  1.3321 -0.3382 -1.8434
  417EMI    H1' 7915   6.030   6.404   2.314  1.7094 -0.0962  1.8004
  417EMI    H1' 7916   6.176   6.458   2.257 -1.2418 -2.3664  1.1588
  417EMI    C1" 7917   5.956   6.619   1.796 -0.1912  0.3751  0.5965
  417EMI    H1" 7918   5.897   6.541   1.752  0.1381  0.1866  2.5602
  417EMI    H1" 7919   6.057   6.636   1.758  1.5695 -1.2023 -0.5418
  417EMI    C2" 7920   5.879   6.740   1.755  0.7434  0.4917  0.1539
  417EMI    H2" 7921   5.926   6.830   1.803 -0.7733  0.1985 -2.5920
  417EMI    H2" 7922   5.880   6.744   1.648  0.0700  0.1602  0.7583
  417EMI    H2" 7923   5.774   6.735   1.787 -1.9673  0.8004  2.6388
  418EMI     N1 7924   2.562   2.087   3.563  0.1533  0.0977  0.0801
  418EMI     C2 7925   2.567   1.954   3.557 -0.7642 -0.9212 -0.0430
  418EMI     N3 7926   2.669   1.909   3.631 -0.3019  0.5099 -0.2217
  418EMI     C4 7927   2.729   2.021   3.687 -0.7558 -0.6230 -0.5567
  418EMI     C5 7928   2.656   2.124   3.658 -0.3087 -0.1635  0.6897
  418EMI     H2 7929   2.494   1.898   3.500 -1.3172  0.8794  0.7217
  418EMI     H4 7930   2.817   2.022   3.752  0.9731  1.5721  0.7846
  418EMI     H5 7931   2.670   2.225   3.687  1.1117 -0.1770  0.5622
  418EMI    C1' 7932   2.718   1.771   3.649  0.3375  0.2331 -0.3229
  418EMI    H1' 7933   2.771   1.765   3.740 -0.3692  1.8126  0.1610
  418EMI    H1' 7934   2.637   1.703   3.645 -3.0812 -1.6960 -2.8053
  418EMI    H1' 7935   2.780   1.753   3.564 -3.5024 -0.1127 -3.1398
  418EMI    C1" 7936   2.488   2.190   3.484  0.1071  0.1704 -0.0570
  418EMI    H1" 7937   2.523   2.290   3.499  0.2035  1.7474 -0.6001
  418EMI    H1" 7938   2.386   2.185   3.501 -3.3681 -1.6374  1.9803
  418EMI    C2" 7939   2.512   2.170   3.335  0.4802  0.5961 -0.4806
  418EMI    H2" 7940   2.482   2.069   3.305 -0.3771  3.6045  1.4077
  418EMI    H2" 7941   2.437   2.232   3.280  1.9542  0.9007  2.6413
  418EMI    H2" 7942   2.616   2.196   3.312  0.8636  0.5705 -2.0538
  419EMI     N1 7943   2.895   6.239   2.076 -0.3098 -0.2958  0.1177
  419EMI     C2 7944   3.021   6.196   2.095  0.0036  0.0180  0.5885
  419EMI     N3 7945   3.101   6.290   2.153 -0.1952 -0.5618  0.0242
  419EMI     C4 7946   3.026   6.401   2.173  0.6923  0.3915  1.5774
  419EMI     C5 7947   2.898   6.367   2.126  0.4316  0.3775  0.0127
  419EMI     H2 7948   3.073   6.098   2.071  2.9009  0.4639  1.2709
  419EMI     H4 7949   3.052   6.493   2.218 -0.9715  1.1082  0.4676
  419EMI     H5 7950   2.820   6.440   2.125  2.3300 -1.7096 -0.9877
  419EMI    C1' 7951   3.247   6.296   2.186 -0.1200  0.9965 -0.1687
  419EMI    H1' 7952   3.268   6.237   2.277  1.0258 -4.1368  2.3722
  419EMI    H1' 7953   3.296   6.234   2.116  0.0751 -2.0958 -1.9335
  419EMI    H1' 7954   3.287   6.400   2.181  1.2908  0.4449  2.1019
  419EMI    C1" 7955   2.779   6.162   2.042  0.2224 -0.2554 -0.7826
  419EMI    H1" 7956   2.809   6.061   2.067 -0.7112 -1.1841 -2.1722
  419EMI    H1" 7957   2.767   6.165   1.935  0.7519 -0.9742  1.4838
  419EMI    C2" 7958   2.653   6.190   2.127  0.4825  0.0206  0.6742
  419EMI    H2" 7959   2.614   6.290   2.093 -1.9631  3.1654 -2.3446
  419EMI    H2" 7960   2.571   6.119   2.100 -2.1482  1.3297 -2.1212
  419EMI    H2" 7961   2.669   6.177   2.230 -0.1240  1.0474  1.7139
  420EMI     N1 7962   4.780   2.365   2.096  0.4743 -0.3574  0.0418
  420EMI     C2 7963   4.736   2.303   2.210 -0.1341  0.3280  1.2339
  420EMI     N3 7964   4.839   2.274   2.286  0.1521 -0.6026 -0.2829
  420EMI     C4 7965   4.954   2.317   2.218  0.1283 -0.1313 -0.1917
  420EMI     C5 7966   4.917   2.368   2.101 -0.2947  0.4140 -0.3477
  420EMI     H2 7967   4.633   2.291   2.246 -3.2913 -0.0834 -0.1972
  420EMI     H4 7968   5.057   2.303   2.260 -0.2004  0.9972  0.1235
  420EMI     H5 7969   4.990   2.411   2.027 -0.0720  0.0122  5.0287
  420EMI    C1' 7970   4.837   2.211   2.418  0.5167 -0.3855 -0.0319
  420EMI    H1' 7971   4.774   2.122   2.414 -1.6164 -0.0154  1.5539
  420EMI    H1' 7972   4.938   2.183   2.446  1.3563  0.0983 -1.7565
  420EMI    H1' 7973   4.784   2.275   2.489 -0.5161  0.3899  0.1906
  420EMI    C1" 7974   4.707   2.414   1.971 -0.5986 -0.4469 -0.0192
  420EMI    H1" 7975   4.771   2.385   1.888 -0.6825  1.8235  1.1928
  420EMI    H1" 7976   4.703   2.524   1.983  1.1198 -0.0145 -0.4059
  420EMI    C2" 7977   4.561   2.370   1.948  0.3821  0.2062  0.2101
  420EMI    H2" 7978   4.545   2.394   1.838  0.4763  1.1507 -1.9938
  420EMI    H2" 7979   4.548   2.262   1.958 -1.8885 -0.0696 -1.7857
  420EMI    H2" 7980   4.495   2.420   2.024 -2.9024  1.2103 -0.2572
  421EMI     N1 7981   3.899   2.729   5.843 -0.3386  0.0997 -0.0005
  421EMI     C2 7982   4.021   2.712   5.797 -0.2807  0.3556 -0.4024
  421EMI     N3 7983   4.049   2.578   5.807  0.4026 -0.1184  0.7072
  421EMI     C4 7984   3.938   2.513   5.856 -0.4602 -0.1133  0.2155
  421EMI     C5 7985   3.847   2.604   5.883 -0.0159  0.4089 -0.1116
  421EMI     H2 7986   4.089   2.795   5.790 -0.4062  0.1447 -1.5326
  421EMI     H4 7987   3.924   2.406   5.868 -3.0224  1.1063  1.5977
  421EMI     H5 7988   3.745   2.588   5.930 -3.0993  2.5921 -0.5029
  421EMI    C1' 7989   4.178   2.506   5.787 -0.2232  0.2432  0.9880
  421EMI    H1' 7990   4.165   2.405   5.757  2.8423 -0.3755  0.2063
  421EMI    H1' 7991   4.234   2.557   5.714 -0.0072  2.9287 -0.8452
  421EMI    H1' 7992   4.235   2.501   5.883  1.2687 -0.0003  4.8451
  421EMI    C1" 7993   3.814   2.847   5.859 -0.3205  0.0388 -0.3799
  421EMI    H1" 7994   3.874   2.918   5.919  2.1712  0.5320 -0.2771
  421EMI    H1" 7995   3.718   2.811   5.906  0.1272 -0.9903 -4.7405
  421EMI    C2" 7996   3.775   2.893   5.713 -0.6590 -0.2799 -0.2087
  421EMI    H2" 7997   3.868   2.909   5.658 -0.8723  1.0129 -0.7236
  421EMI    H2" 7998   3.728   2.810   5.658 -1.1420  1.8401 -1.3061
  421EMI    H2" 7999   3.711   2.978   5.721  2.1078 -2.1902  1.8933
  422EMI     N1 8000   4.735   4.057   0.541  0.4353 -0.4189 -0.0403
  422EMI     C2 8001   4.749   3.948   0.471 -0.4017 -0.5862  0.1044
  422EMI     N3 8002   4.805   3.849   0.550  0.2859 -0.0973 -0.0355
  422EMI     C4 8003   4.830   3.908   0.668 -0.0520 -0.1939  0.2081
  422EMI     C5 8004   4.787   4.037   0.667 -0.9226  0.0318 -0.0997
  422EMI     H2 8005   4.734   3.929   0.365 -1.6263 -0.5863  0.4461
  422EMI     H4 8006   4.868   3.847   0.752  1.3697  0.9236 -0.7514
  422EMI     H5 8007   4.800   4.110   0.752  0.8914  0.0643 -1.9633
  422EMI    C1' 8008   4.850   3.714   0.515  0.3452  0.2604 -0.2085
  422EMI    H1' 8009   4.772   3.647   0.549  1.3822  0.9087 -1.8176
  422EMI    H1' 8010   4.870   3.710   0.406 -0.2767  0.1866 -1.8894
  422EMI    H1' 8011   4.934   3.688   0.570 -4.0883 -1.1263 -2.6730
  422EMI    C1" 8012   4.705   4.192   0.498  0.6811 -0.0071  0.3083
  422EMI    H1" 8013   4.701   4.203   0.391  1.5128  3.3540  0.7917
  422EMI    H1" 8014   4.774   4.258   0.540 -1.9835  0.4872  0.6202
  422EMI    C2" 8015   4.570   4.230   0.547  0.3220  0.5188 -0.0082
  422EMI    H2" 8016   4.587   4.261   0.654 -0.3886  3.1246  2.1770
  422EMI    H2" 8017   4.545   4.318   0.497 -0.4424 -0.6166 -2.1580
  422EMI    H2" 8018   4.507   4.142   0.529  1.1111  1.7969  1.3786
  423EMI     N1 8019   2.685   4.728   6.673  1.4571  0.2343  0.2513
  423EMI     C2 8020   2.649   4.619   6.609  0.6703  0.1068 -0.1678
  423EMI     N3 8021   2.548   4.559   6.681 -0.4815 -0.0783  0.0502
  423EMI     C4 8022   2.530   4.627   6.797  0.6031  0.3912  0.0460
  423EMI     C5 8023   2.613   4.738   6.794  0.8454  0.2636 -0.1948
  423EMI     H2 8024   2.703   4.574   6.524 -0.0363  1.0081 -1.4971
  423EMI     H4 8025   2.468   4.594   6.877 -1.2728  0.4183  2.3419
  423EMI     H5 8026   2.614   4.821   6.863 -1.1666 -2.1748  2.0527
  423EMI    C1' 8027   2.475   4.440   6.637 -0.1519 -0.2836  0.2389
  423EMI    H1' 8028   2.375   4.444   6.669  1.0505  0.2510 -3.6782
  423EMI    H1' 8029   2.474   4.437   6.524 -1.2451  0.0094 -1.0460
  423EMI    H1' 8030   2.518   4.345   6.671  1.5199  0.1689 -0.0707
  423EMI    C1" 8031   2.786   4.829   6.630 -0.2029 -0.9756 -0.2335
  423EMI    H1" 8032   2.803   4.828   6.521  4.9011 -0.5185  0.5579
  423EMI    H1" 8033   2.879   4.802   6.678 -0.7453 -2.3642 -0.4662
  423EMI    C2" 8034   2.749   4.968   6.673 -0.3053 -0.6470  0.3136
  423EMI    H2" 8035   2.830   5.030   6.624  0.9912  1.3051 -0.7560
  423EMI    H2" 8036   2.654   4.994   6.636  3.6838  1.2250  2.7919
  423EMI    H2" 8037   2.749   4.985   6.782  0.0064 -0.2733 -1.2387
  424EMI     N1 8038   5.447   0.188   0.493 -0.4112 -0.3475  0.3434
  424EMI     C2 8039   5.489   0.316   0.498  0.9266 -0.2563  0.2351
  424EMI     N3 8040   5.557   0.336   0.613  0.3552 -0.7077  0.3678
  424EMI     C4 8041   5.554   0.224   0.693 -0.3792 -0.1770  0.2377
  424EMI     C5 8042   5.482   0.134   0.617  1.4706  0.5332 -0.2987
  424EMI     H2 8043   5.465   0.386   0.423 -0.7555 -0.1388  1.6839
  424EMI     H4 8044   5.588   0.222   0.793 -1.3558 -1.1090 -1.6957
  424EMI     H5 8045   5.456   0.034   0.646 -0.2351 -1.9621 -1.3574
  424EMI    C1' 8046   5.638   0.452   0.653 -0.1753  0.7865 -0.7235
  424EMI    H1' 8047   5.574   0.534   0.675 -0.7724 -1.4924 -0.7891
  424EMI    H1' 8048   5.683   0.426   0.751 -0.3608 -0.4664  0.6191
  424EMI    H1' 8049   5.711   0.481   0.575  1.1349 -0.1242  0.9474
  424EMI    C1" 8050   5.381   0.125   0.379 -0.1504  0.1859  0.4782
  424EMI    H1" 8051   5.376   0.020   0.397 -1.1725  0.3258  0.1378
  424EMI    H1" 8052   5.447   0.137   0.283  3.1579  1.7753 -0.5268
  424EMI    C2" 8053   5.238   0.173   0.350 -0.6385 -0.2105  0.1152
  424EMI    H2" 8054   5.172   0.132   0.430  0.9652  2.2600  0.1132
  424EMI    H2" 8055   5.234   0.281   0.355  1.0569 -0.3421 -2.5514
  424EMI    H2" 8056   5.207   0.156   0.245  1.8463  0.5080  0.7481
  425EMI     N1 8057   4.391   5.105   3.137 -0.1435 -0.0377  0.3241
  425EMI     C2 8058   4.451   5.152   3.246  0.0077  0.5852  0.6863
  425EMI     N3 8059   4.426   5.281   3.260 -0.3859  0.5349 -0.4048
  425EMI     C4 8060   4.362   5.321   3.147  0.1986  0.6837 -0.2705
  425EMI     C5 8061   4.331   5.212   3.075  0.0966  0.7295  0.6632
  425EMI     H2 8062   4.525   5.098   3.314  0.6480  2.0765  2.0274
  425EMI     H4 8063   4.344   5.424   3.124  1.7873  0.2922  1.1997
  425EMI     H5 8064   4.279   5.206   2.982 -0.6435 -0.7322 -1.6611
  425EMI    C1' 8065   4.470   5.375   3.364 -0.2452 -0.2759 -0.0721
  425EMI    H1' 8066   4.387   5.435   3.387  0.2845  1.8431  1.1361
  425EMI    H1' 8067   4.507   5.315   3.453 -2.6455 -0.4550  1.3309
  425EMI    H1' 8068   4.554   5.434   3.328 -0.0095  0.6656 -1.3416
  425EMI    C1" 8069   4.373   4.964   3.089  0.4949  0.2154 -0.3253
  425EMI    H1" 8070   4.476   4.919   3.087 -0.1218 -2.5391  3.0008
  425EMI    H1" 8071   4.334   4.970   2.991 -0.3207 -0.4994  3.5855
  425EMI    C2" 8072   4.279   4.862   3.160 -0.2809 -0.6028  0.5018
  425EMI    H2" 8073   4.281   4.770   3.101 -2.2003 -0.3226 -2.0738
  425EMI    H2" 8074   4.325   4.838   3.256  1.0470 -2.1097  0.5023
  425EMI    H2" 8075   4.174   4.891   3.165 -1.4483  0.5054  0.6586
  426EMI     N1 8076   1.945   5.398   5.755  0.1495 -0.0374 -0.1874
  426EMI     C2 8077   1.919   5.457   5.633  0.0890 -0.1337  0.0906
  426EMI     N3 8078   1.822   5.550   5.650 -0.1652 -0.2260 -0.2607
  426EMI     C4 8079   1.789   5.548   5.784  0.2967  0.7593  0.4138
  426EMI     C5 8080   1.864   5.458   5.848 -0.3665 -0.2905 -0.4150
  426EMI     H2 8081   1.944   5.411   5.538  0.9545 -0.3030 -1.8007
  426EMI     H4 8082   1.709   5.606   5.832  0.7559  0.1914 -0.3299
  426EMI     H5 8083   1.863   5.433   5.957 -0.7870  2.9176  0.9646
  426EMI    C1' 8084   1.744   5.625   5.554 -0.2001 -0.5743 -0.3741
  426EMI    H1' 8085   1.798   5.650   5.462 -1.4726 -1.2623  0.5008
  426EMI    H1' 8086   1.667   5.561   5.511  0.8652  2.3393 -1.3342
  426EMI    H1' 8087   1.713   5.720   5.597 -1.9089  2.2373  0.3182
  426EMI    C1" 8088   2.036   5.284   5.798 -0.3747 -0.0237 -0.3615
  426EMI    H1" 8089   2.108   5.277   5.721 -0.6470  1.8018 -2.2116
  426EMI    H1" 8090   1.979   5.193   5.805  0.0956 -0.2859  1.9962
  426EMI    C2" 8091   2.111   5.315   5.928  0.2168  0.0688 -0.0659
  426EMI    H2" 8092   2.191   5.387   5.909  1.3765  2.1434 -0.7398
  426EMI    H2" 8093   2.036   5.356   5.997  2.0818 -1.2280  0.1145
  426EMI    H2" 8094   2.159   5.223   5.959  1.7604  0.4982  1.7899
  427EMI     N1 8095   3.096   2.731   1.758 -0.9212 -0.3509  0.1867
  427EMI     C2 8096   2.972   2.695   1.770 -0.7363 -0.2493 -0.1979
  427EMI     N3 8097   2.946   2.628   1.884 -0.6944 -0.3153  0.4448
  427EMI     C4 8098   3.068   2.618   1.945  0.8088  0.2582 -0.6945
  427EMI     C5 8099   3.159   2.679   1.870  0.3174 -0.6795  0.2696
  427EMI     H2 8100   2.915   2.700   1.684  1.1835  1.5613  0.9295
  427EMI     H4 8101   3.075   2.563   2.036  1.5426  0.5614 -1.5131
  427EMI     H5 8102   3.262   2.691   1.914 -0.3498  2.1532  1.3633
  427EMI    C1' 8103   2.824   2.577   1.951  0.0106 -0.1921 -0.3185
  427EMI    H1' 8104   2.762   2.661   1.989  1.1207  1.4228 -0.6236
  427EMI    H1' 8105   2.760   2.526   1.869 -1.0180 -0.9677  0.0701
  427EMI    H1' 8106   2.853   2.499   2.030 -0.7550  0.0126  0.9800
  427EMI    C1" 8107   3.164   2.811   1.656  0.2329  0.1636 -0.4646
  427EMI    H1" 8108   3.208   2.741   1.585  3.4705 -0.2609 -1.1794
  427EMI    H1" 8109   3.255   2.855   1.699  0.0896  0.2175 -1.7655
  427EMI    C2" 8110   3.085   2.919   1.585  0.1636 -0.4311 -0.2353
  427EMI    H2" 8111   3.051   2.984   1.666 -1.4189  0.5348 -0.0371
  427EMI    H2" 8112   3.142   2.970   1.512 -1.0735  1.6344  0.7032
  427EMI    H2" 8113   2.999   2.875   1.539 -0.7386 -0.6438  0.5674
  428EMI     N1 8114   6.698   2.440   0.001  0.1576  0.6568 -0.3040
  428EMI     C2 8115   6.692   2.314  -0.045 -0.1041  0.1939 -0.4866
  428EMI     N3 8116   6.754   2.235   0.045 -0.1497 -0.1591  0.5117
  428EMI     C4 8117   6.785   2.313   0.157  0.5414  0.9014 -0.0435
  428EMI     C5 8118   6.754   2.440   0.127  0.5363 -0.8594 -0.2407
  428EMI     H2 8119   6.649   2.281  -0.133  3.9317  0.7824  1.4194
  428EMI     H4 8120   6.821   2.280   0.260  2.1104  0.2112  1.1896
  428EMI     H5 8121   6.754   2.526   0.198  0.3716 -0.9328  1.9518
  428EMI    C1' 8122   6.775   2.085   0.046 -0.7978  0.2220 -0.1984
  428EMI    H1' 8123   6.701   2.026   0.101 -2.4598 -0.3551  0.2343
  428EMI    H1' 8124   6.776   2.056  -0.062  0.4995 -2.3651  0.9615
  428EMI    H1' 8125   6.880   2.069   0.084 -0.5981  0.1301  0.7959
  428EMI    C1" 8126   6.637   2.560  -0.065 -0.3604 -0.5287  0.9489
  428EMI    H1" 8127   6.651   2.548  -0.171 -0.9943 -0.3542 -1.3395
  428EMI    H1" 8128   6.696   2.651  -0.029 -0.0024 -0.2491 -0.2578
  428EMI    C2" 8129   6.489   2.585  -0.031 -0.5009 -0.3292 -0.7679
  428EMI    H2" 8130   6.460   2.688  -0.062  1.3475  0.8245 -0.4301
  428EMI    H2" 8131   6.427   2.509  -0.076 -1.5567  0.0128 -2.3047
  428EMI    H2" 8132   6.486   2.580   0.082 -3.1813  0.8800  1.6195
  429EMI     N1 8133   2.648   5.113   3.543  0.3327  0.1669 -0.2462
  429EMI     C2 8134   2.691   5.238   3.545 -0.0741 -0.1586  0.1911
  429EMI     N3 8135   2.737   5.270   3.428  0.5426 -0.5431 -0.5248
  429EMI     C4 8136   2.744   5.162   3.356  0.1796 -0.6153  0.3137
  429EMI     C5 8137   2.690   5.061   3.427 -0.6101 -0.5642  0.2802
  429EMI     H2 8138   2.675   5.304   3.633 -3.7132 -0.7039  1.5063
  429EMI     H4 8139   2.790   5.150   3.260 -2.2433 -1.8167  2.8626
  429EMI     H5 8140   2.688   4.960   3.394 -0.1637 -0.1215  1.8351
  429EMI    C1' 8141   2.791   5.403   3.382  0.3003  0.4234  0.2838
  429EMI    H1' 8142   2.748   5.433   3.290  0.3400 -0.1102 -1.2497
  429EMI    H1' 8143   2.778   5.480   3.462 -2.8765 -3.0629  0.9338
  429EMI    H1' 8144   2.900   5.401   3.370 -0.2865  1.1874 -1.6971
  429EMI    C1" 8145   2.592   5.039   3.663  0.1483  0.1935 -0.0598
  429EMI    H1" 8146   2.495   4.999   3.636 -2.1060  0.6753  0.9696
  429EMI    H1" 8147   2.579   5.115   3.744  1.2463  1.0218  0.9856
  429EMI    C2" 8148   2.674   4.928   3.717  0.0900 -0.1208 -0.6322
  429EMI    H2" 8149   2.778   4.962   3.725 -0.1626  0.9321  1.9367
  429EMI    H2" 8150   2.640   4.896   3.817 -1.5893  0.4684 -1.1891
  429EMI    H2" 8151   2.665   4.841   3.655 -1.5613 -0.9046 -2.5274
  430EMI     N1 8152   4.454   5.709   0.402  0.2283  0.0295 -0.2748
  430EMI     C2 8153   4.561   5.715   0.327  0.1317 -0.0729 -0.8667
  430EMI     N3 8154   4.598   5.847   0.300  0.4887  0.0110 -0.5215
  430EMI     C4 8155   4.497   5.924   0.359  0.0449  0.8959 -0.0127
  430EMI     C5 8156   4.405   5.838   0.411 -0.1199  0.1979  0.4653
  430EMI     H2 8157   4.630   5.633   0.312  1.7837 -0.1076  3.6709
  430EMI     H4 8158   4.489   6.033   0.354 -1.3532 -0.8075  4.3844
  430EMI     H5 8159   4.306   5.869   0.446 -0.4553 -0.0736 -1.5732
  430EMI    C1' 8160   4.729   5.894   0.264 -0.4312  0.2102  0.4148
  430EMI    H1' 8161   4.754   5.993   0.302 -2.9067 -1.0649 -1.4636
  430EMI    H1' 8162   4.804   5.815   0.294  0.5330  0.2475 -0.6302
  430EMI    H1' 8163   4.721   5.904   0.159 -1.6538  0.5165  1.9837
  430EMI    C1" 8164   4.387   5.583   0.444 -0.1576 -0.1946 -0.4938
  430EMI    H1" 8165   4.286   5.576   0.398 -0.0824 -3.8231 -1.2186
  430EMI    H1" 8166   4.378   5.580   0.553  1.8982 -3.4970  4.1599
  430EMI    C2" 8167   4.463   5.449   0.424  0.5697  0.1306 -0.0887
  430EMI    H2" 8168   4.399   5.360   0.432  0.8341 -1.6169  0.5303
  430EMI    H2" 8169   4.498   5.450   0.322  2.2522  1.7130  0.8003
  430EMI    H2" 8170   4.546   5.443   0.492  0.1781  1.7734  2.0231
  431EMI     N1 8171   0.117   2.297   6.278  0.7542  0.6861  0.1379
  431EMI     C2 8172   0.134   2.221   6.175 -0.1270 -0.1815 -0.1687
  431EMI     N3 8173   0.263   2.216   6.141 -0.0241 -0.0998 -0.4524
  431EMI     C4 8174   0.327   2.293   6.237  0.7250  0.4559 -0.2515
  431EMI     C5 8175   0.238   2.343   6.322 -0.4132 -0.0708  0.5250
  431EMI     H2 8176   0.058   2.163   6.124  2.2800 -2.5029 -0.1505
  431EMI     H4 8177   0.435   2.305   6.247  0.2006 -1.3003 -0.6008
  431EMI     H5 8178   0.245   2.401   6.408 -0.8022 -0.2589  0.8326
  431EMI    C1' 8179   0.331   2.152   6.031  0.2864  0.5351  0.1624
  431EMI    H1' 8180   0.272   2.117   5.950 -3.3789 -0.2327  1.5418
  431EMI    H1' 8181   0.414   2.218   5.999 -1.9732  1.7179  0.3949
  431EMI    H1' 8182   0.381   2.064   6.077  1.9883  1.1946  1.0962
  431EMI    C1" 8183  -0.007   2.307   6.352  0.0061  0.1189  0.0723
  431EMI    H1" 8184   0.000   2.342   6.455 -1.7097  1.7955 -1.9411
  431EMI    H1" 8185  -0.066   2.217   6.357  0.7772  0.3601  3.3203
  431EMI    C2" 8186  -0.105   2.409   6.297 -0.5003 -0.1694  0.2199
  431EMI    H2" 8187  -0.065   2.510   6.293  0.9796  0.2319 -1.8874
  431EMI    H2" 8188  -0.143   2.380   6.201  0.2543 -0.7481 -0.3514
  431EMI    H2" 8189  -0.184   2.412   6.373  0.8626 -0.4098  0.8958
  432EMI     N1 8190   2.127   0.922   2.677  0.4892  0.0384 -0.1561
  432EMI     C2 8191   2.158   1.048   2.707  0.1660 -0.4405  0.2752
  432EMI     N3 8192   2.123   1.131   2.605 -1.2919  0.2227  0.4711
  432EMI     C4 8193   2.062   1.048   2.509 -0.8640 -0.0301  0.9377
  432EMI     C5 8194   2.060   0.921   2.554 -0.3344 -0.1148  0.3194
  432EMI     H2 8195   2.201   1.080   2.800 -1.0568  0.0576 -0.3711
  432EMI     H4 8196   2.024   1.078   2.411  0.4186 -1.1330  0.8229
  432EMI     H5 8197   2.022   0.831   2.494 -1.0127  1.0408  1.3371
  432EMI    C1' 8198   2.147   1.275   2.590  0.8017 -0.4315 -0.3368
  432EMI    H1' 8199   2.086   1.334   2.651 -2.3401  2.1475 -4.1475
  432EMI    H1' 8200   2.250   1.304   2.617  3.4166  2.0439 -0.3227
  432EMI    H1' 8201   2.126   1.316   2.492 -0.0322 -0.5367  0.1047
  432EMI    C1" 8202   2.163   0.800   2.747  0.2212  0.8855 -0.9146
  432EMI    H1" 8203   2.269   0.781   2.750 -0.1221  0.2118 -1.8282
  432EMI    H1" 8204   2.115   0.714   2.700 -2.7880 -0.3849  1.3463
  432EMI    C2" 8205   2.108   0.791   2.887 -0.1359  0.4877 -0.1653
  432EMI    H2" 8206   2.120   0.687   2.919 -2.3441 -0.8130 -1.3996
  432EMI    H2" 8207   2.160   0.854   2.950 -3.0485 -0.8430 -2.1967
  432EMI    H2" 8208   2.006   0.816   2.892  2.5146 -2.5147 -3.1659
  433EMI     N1 8209   4.487   0.134   6.244  0.5810  0.3538  0.0483
  433EMI     C2 8210   4.446   0.031   6.325  0.2534 -0.2896  0.3608
  433EMI     N3 8211   4.339  -0.021   6.263 -0.0968 -0.1192 -0.2043
  433EMI     C4 8212   4.308   0.044   6.151  0.4036  0.0151 -0.4372
  433EMI     C5 8213   4.398   0.140   6.138 -0.2327  0.5488  0.0191
  433EMI     H2 8214   4.490  -0.007   6.416  2.3198 -0.4756  1.6691
  433EMI     H4 8215   4.222   0.027   6.081 -1.1974  1.0505 -0.8394
  433EMI     H5 8216   4.410   0.208   6.052 -2.0102  2.2454 -3.0299
  433EMI    C1' 8217   4.265  -0.136   6.308  0.2272 -0.0707 -1.1639
  433EMI    H1' 8218   4.188  -0.162   6.240  2.9221  0.2562 -1.7977
  433EMI    H1' 8219   4.335  -0.217   6.314 -3.0270  2.5591  1.5736
  433EMI    H1' 8220   4.218  -0.118   6.408  2.0629  1.2008 -2.0449
  433EMI    C1" 8221   4.604   0.237   6.255  0.1374 -0.6091 -0.1161
  433EMI    H1" 8222   4.644   0.258   6.153 -0.7227 -0.7990 -1.0729
  433EMI    H1" 8223   4.689   0.202   6.313  4.3305 -1.6227  2.0297
  433EMI    C2" 8224   4.553   0.366   6.307 -0.5721 -0.7360 -0.5494
  433EMI    H2" 8225   4.528   0.355   6.409  1.0276  1.3900 -0.7718
  433EMI    H2" 8226   4.638   0.437   6.309 -1.7366  0.0016 -0.1150
  433EMI    H2" 8227   4.473   0.407   6.253  2.2094 -1.7559  0.0097
  434EMI     N1 8228   6.187   3.536   6.489 -0.4773 -0.8268 -0.0922
  434EMI     C2 8229   6.077   3.456   6.500 -0.2900  0.2184  0.1850
  434EMI     N3 8230   6.094   3.368   6.594  0.4554  0.3099  0.0274
  434EMI     C4 8231   6.211   3.391   6.657 -0.1553  0.4295  0.5219
  434EMI     C5 8232   6.273   3.504   6.599  0.5617 -0.3545  0.5972
  434EMI     H2 8233   5.994   3.457   6.438 -0.1002  0.1195  0.2616
  434EMI     H4 8234   6.251   3.329   6.737  4.5935 -3.2977  2.4924
  434EMI     H5 8235   6.372   3.543   6.628 -0.9780 -3.3988  1.7906
  434EMI    C1' 8236   6.006   3.252   6.626 -0.1215 -1.1550 -0.6632
  434EMI    H1' 8237   5.928   3.245   6.557 -2.0161 -2.3704 -0.3042
  434EMI    H1' 8238   6.072   3.162   6.636 -0.4215 -1.2067 -1.7489
  434EMI    H1' 8239   5.958   3.270   6.723 -0.8736 -1.0306  0.5166
  434EMI    C1" 8240   6.221   3.657   6.408  0.6128 -0.6179  0.6154
  434EMI    H1" 8241   6.217   3.620   6.303  1.3333 -1.1755  2.5744
  434EMI    H1" 8242   6.321   3.688   6.417 -2.5042 -1.3922 -0.2919
  434EMI    C2" 8243   6.126   3.771   6.422 -0.1249  0.5354 -0.6067
  434EMI    H2" 8244   6.171   3.862   6.375  2.2892  0.2756  1.7734
  434EMI    H2" 8245   6.032   3.749   6.376 -0.8586  0.4688  0.0134
  434EMI    H2" 8246   6.111   3.789   6.530 -0.7083 -0.6477 -0.8852
  435EMI     N1 8247   2.524   1.534   1.615  0.0981 -0.2567 -0.0425
  435EMI     C2 8248   2.609   1.632   1.641 -0.1907  0.2334  0.3280
  435EMI     N3 8249   2.539   1.744   1.654 -0.1887  0.1859  0.2493
  435EMI     C4 8250   2.408   1.709   1.656 -0.1997  0.4078  0.5569
  435EMI     C5 8251   2.399   1.579   1.636  0.4165 -0.0372  0.4934
  435EMI     H2 8252   2.713   1.639   1.641 -2.7470 -0.2646 -1.0483
  435EMI     H4 8253   2.328   1.778   1.673  1.5137 -2.3613 -1.8330
  435EMI     H5 8254   2.309   1.523   1.625  1.1367  1.0470 -0.6878
  435EMI    C1' 8255   2.580   1.872   1.691 -0.3136  0.1843 -0.1994
  435EMI    H1' 8256   2.692   1.886   1.667  2.2913 -0.1861  0.5402
  435EMI    H1' 8257   2.524   1.941   1.631  1.2488 -0.0749  0.1114
  435EMI    H1' 8258   2.563   1.891   1.793  0.3215 -0.2734 -0.5336
  435EMI    C1" 8259   2.544   1.392   1.590  0.7805 -0.3043  0.3962
  435EMI    H1" 8260   2.462   1.331   1.623 -0.8631 -1.9273 -2.0774
  435EMI    H1" 8261   2.638   1.375   1.632 -1.8066 -0.1227  1.5058
  435EMI    C2" 8262   2.565   1.354   1.442 -0.1791 -0.1719  0.0517
  435EMI    H2" 8263   2.651   1.411   1.399  2.3535  2.2928 -0.4973
  435EMI    H2" 8264   2.593   1.253   1.436 -0.3188  1.0304  0.1854
  435EMI    H2" 8265   2.478   1.367   1.377 -0.2806  1.5770 -1.7909
  436EMI     N1 8266   4.991   0.035   3.249 -0.1881 -0.6110  0.0602
  436EMI     C2 8267   5.075   0.045   3.144 -0.0946 -0.2962  0.0465
  436EMI     N3 8268   5.195   0.003   3.178  0.1320 -0.0447 -0.5016
  436EMI     C4 8269   5.188  -0.042   3.305 -0.3740 -0.3995 -0.2508
  436EMI     C5 8270   5.062  -0.025   3.351 -0.2123  0.1863 -0.0908
  436EMI     H2 8271   5.049   0.072   3.042 -0.0470  2.6060  0.2619
  436EMI     H4 8272   5.267  -0.096   3.357 -0.0358 -2.0739 -2.6541
  436EMI     H5 8273   5.023  -0.060   3.448  3.1845 -1.4181 -0.9320
  436EMI    C1' 8274   5.319  -0.016   3.097 -0.2006 -0.3994 -0.2804
  436EMI    H1' 8275   5.326  -0.112   3.045 -1.3629  1.0437 -0.9791
  436EMI    H1' 8276   5.318   0.063   3.025  3.4584  0.1736 -1.1202
  436EMI    H1' 8277   5.404   0.004   3.159  1.4286 -0.2916  0.1054
  436EMI    C1" 8278   4.855   0.082   3.270  0.4739  0.3987 -0.2728
  436EMI    H1" 8279   4.818   0.034   3.360 -0.9828 -2.8163 -1.0095
  436EMI    H1" 8280   4.792   0.059   3.189 -0.7129 -0.0962  0.7864
  436EMI    C2" 8281   4.856   0.235   3.285 -0.2910 -0.1235 -0.4182
  436EMI    H2" 8282   4.763   0.277   3.322  0.6439 -1.0358  0.3170
  436EMI    H2" 8283   4.940   0.263   3.345 -0.0766  1.8165 -2.2062
  436EMI    H2" 8284   4.864   0.287   3.191  1.2912 -1.9313  0.6549
  437EMI     N1 8285   0.789   0.641   6.354 -0.3801 -0.6656 -0.0626
  437EMI     C2 8286   0.735   0.592   6.467 -0.6609  0.3752 -0.0105
  437EMI     N3 8287   0.832   0.560   6.554  0.0874  0.5927  0.4109
  437EMI     C4 8288   0.951   0.594   6.495  0.3596  0.1426 -0.0535
  437EMI     C5 8289   0.924   0.646   6.375  0.6833 -0.3531  0.1368
  437EMI     H2 8290   0.629   0.572   6.471 -1.1585 -2.2390 -1.0805
  437EMI     H4 8291   1.052   0.575   6.533 -0.4456 -0.2083 -1.4436
  437EMI     H5 8292   0.997   0.675   6.305  2.2849 -1.3428  0.7474
  437EMI    C1' 8293   0.820   0.493   6.686 -0.2252  0.1183  0.5805
  437EMI    H1' 8294   0.757   0.561   6.750 -1.4038 -2.7358  2.4897
  437EMI    H1' 8295   0.774   0.397   6.679  2.3316 -0.1220  1.9530
  437EMI    H1' 8296   0.916   0.486   6.731 -1.8319 -0.3738  2.6527
  437EMI    C1" 8297   0.713   0.691   6.234  0.6013  0.0728  0.5006
  437EMI    H1" 8298   0.667   0.792   6.246  1.5553  0.1881 -0.7899
  437EMI    H1" 8299   0.624   0.621   6.225 -1.9934 -0.4225 -5.7114
  437EMI    C2" 8300   0.792   0.695   6.105  0.4653  1.1420  0.1345
  437EMI    H2" 8301   0.870   0.764   6.118  2.8212 -0.7735  0.1847
  437EMI    H2" 8302   0.833   0.597   6.088  1.2848 -1.7067 -0.4871
  437EMI    H2" 8303   0.733   0.725   6.021 -0.9915 -1.1562  0.2091
  438EMI     N1 8304   3.053   4.837   3.050 -0.0654  0.6649 -0.2847
  438EMI     C2 8305   2.953   4.775   2.981  0.2401 -0.6788 -0.7552
  438EMI     N3 8306   2.861   4.728   3.064  0.1789 -0.0119  0.4539
  438EMI     C4 8307   2.897   4.763   3.194 -0.0421  0.0484  0.0807
  438EMI     C5 8308   3.017   4.823   3.187 -0.2372  0.8091  0.4838
  438EMI     H2 8309   2.949   4.760   2.877 -4.5268  1.7198  1.9261
  438EMI     H4 8310   2.847   4.741   3.287 -0.7791 -0.1070 -1.8490
  438EMI     H5 8311   3.075   4.857   3.266 -2.4722 -0.9124  1.9273
  438EMI    C1' 8312   2.737   4.653   3.027 -0.2311 -0.5687  0.3544
  438EMI    H1' 8313   2.649   4.688   3.091  0.8271 -2.9923 -2.1707
  438EMI    H1' 8314   2.709   4.676   2.925 -1.1715 -1.0298  0.0468
  438EMI    H1' 8315   2.762   4.546   3.030  0.7792  1.5535  1.7139
  438EMI    C1" 8316   3.168   4.910   3.004 -0.3424  0.3253 -0.1650
  438EMI    H1" 8317   3.248   4.909   3.080  1.9054  2.5417 -3.4532
  438EMI    H1" 8318   3.134   5.013   2.997  1.0874  0.2772 -0.2838
  438EMI    C2" 8319   3.223   4.862   2.872  0.6893 -0.0460  0.6551
  438EMI    H2" 8320   3.317   4.907   2.843 -0.0029 -1.3771 -1.3566
  438EMI    H2" 8321   3.250   4.752   2.878 -1.3937 -1.3784  2.1319
  438EMI    H2" 8322   3.155   4.878   2.794  3.6397 -0.6270  0.5719
  439EMI     N1 8323   1.764   4.707   6.180  0.1508 -0.2987 -0.5835
  439EMI     C2 8324   1.874   4.659   6.121 -0.2036 -0.2522 -0.4366
  439EMI     N3 8325   1.949   4.586   6.209  0.2035  0.1336  0.3801
  439EMI     C4 8326   1.874   4.573   6.321 -0.7593 -0.5927 -0.1234
  439EMI     C5 8327   1.760   4.648   6.308  0.1704 -0.3850 -0.1010
  439EMI     H2 8328   1.905   4.678   6.019 -1.3471  0.9686 -0.4269
  439EMI     H4 8329   1.910   4.512   6.398 -0.0949  0.9707  0.4774
  439EMI     H5 8330   1.691   4.656   6.392  0.8627 -1.0451  0.9949
  439EMI    C1' 8331   2.087   4.529   6.198 -0.3934 -0.3755  0.3664
  439EMI    H1' 8332   2.153   4.607   6.141 -0.6628 -0.4676 -0.1488
  439EMI    H1' 8333   2.129   4.502   6.299  0.8029 -0.1376  0.8020
  439EMI    H1' 8334   2.098   4.428   6.144  1.0910 -3.0259 -0.3076
  439EMI    C1" 8335   1.661   4.799   6.125  0.3148 -0.4685 -0.0638
  439EMI    H1" 8336   1.710   4.866   6.052  1.2623  0.4054 -2.7350
  439EMI    H1" 8337   1.619   4.868   6.201  2.1172 -1.3431  1.1081
  439EMI    C2" 8338   1.550   4.730   6.052  0.7921  0.3225  0.1571
  439EMI    H2" 8339   1.473   4.801   6.019 -1.3466 -0.6624  1.1766
  439EMI    H2" 8340   1.589   4.680   5.964 -0.1986  0.2610  2.8729
  439EMI    H2" 8341   1.503   4.658   6.117  1.3799  0.8960 -0.0013
  440EMI     N1 8342   0.565   6.757   1.683  0.2016 -0.1868  0.4801
  440EMI     C2 8343   0.457   6.778   1.602  0.0811  0.5164  0.4357
  440EMI     N3 8344   0.409   6.902   1.622 -0.1326  0.1417  0.4443
  440EMI     C4 8345   0.495   6.968   1.705 -0.6640 -0.5354 -0.0167
  440EMI     C5 8346   0.592   6.885   1.741  0.0491  0.6950  0.0128
  440EMI     H2 8347   0.439   6.701   1.520 -1.6367 -0.8326 -1.6750
  440EMI     H4 8348   0.480   7.073   1.740 -3.7696  0.0852 -0.9954
  440EMI     H5 8349   0.679   6.915   1.801 -2.1813  0.0068 -0.8057
  440EMI    C1' 8350   0.296   6.972   1.560 -0.6250  0.2657 -0.6288
  440EMI    H1' 8351   0.256   7.029   1.641  0.1541 -0.8160 -0.4135
  440EMI    H1' 8352   0.325   7.036   1.486  2.0667 -1.5766 -3.7630
  440EMI    H1' 8353   0.228   6.901   1.518 -0.1922 -0.1952 -0.5197
  440EMI    C1" 8354   0.663   6.643   1.693  0.1603  0.6844 -0.5450
  440EMI    H1" 8355   0.705   6.631   1.798  2.0861  1.1658  1.2459
  440EMI    H1" 8356   0.736   6.666   1.617 -0.0514  0.0684  0.7469
  440EMI    C2" 8357   0.593   6.513   1.668 -0.0776 -0.7994 -0.9183
  440EMI    H2" 8358   0.530   6.522   1.579  0.6220  0.7110 -1.0003
  440EMI    H2" 8359   0.667   6.434   1.638 -3.3032 -0.4907 -1.5042
  440EMI    H2" 8360   0.515   6.480   1.742  2.4086  0.9392  1.5802
  441EMI     N1 8361   3.868   4.423   3.277 -0.2586 -0.1180 -0.1631
  441EMI     C2 8362   3.916   4.548   3.258  0.7909  0.1104 -0.4146
  441EMI     N3 8363   3.816   4.634   3.275  0.0517  0.2216 -0.4159
  441EMI     C4 8364   3.697   4.570   3.301  0.4872 -0.8508 -0.2185
  441EMI     C5 8365   3.733   4.442   3.307 -0.1168  0.5341  0.5613
  441EMI     H2 8366   4.020   4.573   3.231 -0.5067 -0.3453 -2.1886
  441EMI     H4 8367   3.598   4.608   3.319  2.7169  1.9039 -1.6477
  441EMI     H5 8368   3.662   4.369   3.341 -1.3431  1.6749 -2.2166
  441EMI    C1' 8369   3.817   4.780   3.274 -0.0249 -0.0455 -0.4701
  441EMI    H1' 8370   3.897   4.817   3.215 -3.0108  1.6406  3.2038
  441EMI    H1' 8371   3.711   4.807   3.247 -0.5454  0.8757 -2.9976
  441EMI    H1' 8372   3.843   4.811   3.372  1.8498 -1.3935 -0.8524
  441EMI    C1" 8373   3.938   4.297   3.287 -0.2644  0.0508  0.0863
  441EMI    H1" 8374   3.971   4.277   3.188  1.7891 -1.2660 -0.8088
  441EMI    H1" 8375   3.873   4.213   3.315 -1.3429  1.2047 -0.7096
  441EMI    C2" 8376   4.056   4.300   3.384  0.5119  0.0042 -0.2487
  441EMI    H2" 8377   4.123   4.383   3.366 -0.1353 -0.8637 -2.4571
  441EMI    H2" 8378   4.018   4.318   3.486  0.6056  2.4331  1.5708
  441EMI    H2" 8379   4.115   4.211   3.380 -0.5999  2.2716  0.2069
  442EMI     N1 8380   5.330   1.432   2.711 -0.2344  0.4407  0.2085
  442EMI     C2 8381   5.373   1.393   2.836  0.4437  0.7789  0.0327
  442EMI     N3 8382   5.264   1.354   2.905  0.8689  0.0886 -0.5830
  442EMI     C4 8383   5.158   1.381   2.826  0.4776  0.5505  0.9566
  442EMI     C5 8384   5.193   1.425   2.704  0.6240  0.5371  0.4627
  442EMI     H2 8385   5.485   1.388   2.862 -1.9721  1.1785  2.3581
  442EMI     H4 8386   5.059   1.353   2.859 -1.0827  1.8066 -1.9517
  442EMI     H5 8387   5.136   1.459   2.617 -0.5433  1.2230 -2.8126
  442EMI    C1' 8388   5.256   1.295   3.042 -0.0039  0.4626  0.3961
  442EMI    H1' 8389   5.162   1.322   3.089  0.6958  1.9477 -2.3648
  442EMI    H1' 8390   5.278   1.190   3.031  1.6512 -2.5349 -0.1529
  442EMI    H1' 8391   5.332   1.356   3.093 -0.3358  0.5225 -1.9810
  442EMI    C1" 8392   5.413   1.480   2.595 -0.5200 -0.8652  0.0390
  442EMI    H1" 8393   5.506   1.539   2.625  3.1628 -0.5550 -3.5107
  442EMI    H1" 8394   5.343   1.537   2.531 -1.7566  2.2153  1.5054
  442EMI    C2" 8395   5.466   1.366   2.508 -0.1077 -0.5232 -0.2735
  442EMI    H2" 8396   5.520   1.411   2.422 -0.7061 -0.1343  0.0785
  442EMI    H2" 8397   5.536   1.305   2.563 -0.1583  2.8185 -0.7663
  442EMI    H2" 8398   5.385   1.308   2.472  1.7321 -0.8967  1.4315
  443EMI     N1 8399   0.558   5.313   3.783  0.0736 -0.6609  0.2912
  443EMI     C2 8400   0.552   5.341   3.911  0.0071  1.0651  0.2479
  443EMI     N3 8401   0.439   5.404   3.940  0.0862  0.2464 -0.6101
  443EMI     C4 8402   0.369   5.420   3.824 -0.2287  0.1323 -0.1615
  443EMI     C5 8403   0.441   5.358   3.727 -0.2302 -0.1952 -0.0222
  443EMI     H2 8404   0.626   5.312   3.984 -0.9743  1.5609 -0.2905
  443EMI     H4 8405   0.271   5.460   3.812 -1.6000 -0.9471  0.5578
  443EMI     H5 8406   0.422   5.356   3.617 -1.7784 -0.0867 -1.0414
  443EMI    C1' 8407   0.393   5.438   4.078  0.3028  0.5560 -0.1774
  443EMI    H1' 8408   0.333   5.351   4.107  1.4824 -1.9341  1.8718
  443EMI    H1' 8409   0.478   5.464   4.137  0.8831 -0.1850 -0.3353
  443EMI    H1' 8410   0.332   5.531   4.081 -0.5065  0.5292 -1.5123
  443EMI    C1" 8411   0.664   5.241   3.702 -0.6603 -0.1039 -0.8716
  443EMI    H1" 8412   0.621   5.169   3.632 -0.6509  0.5864 -1.0593
  443EMI    H1" 8413   0.741   5.201   3.769  0.1115 -0.7955  0.4157
  443EMI    C2" 8414   0.726   5.349   3.614 -0.4332  0.3003 -0.3254
  443EMI    H2" 8415   0.815   5.309   3.560  0.4970  0.9791 -3.0403
  443EMI    H2" 8416   0.644   5.384   3.545 -1.9554 -0.5022  2.7846
  443EMI    H2" 8417   0.759   5.431   3.679  1.2040  1.4102  0.0716
  444EMI     N1 8418   3.614   5.961   4.584 -0.9593 -0.1260  0.4466
  444EMI     C2 8419   3.720   5.875   4.594 -0.7875  0.5368 -0.4375
  444EMI     N3 8420   3.734   5.836   4.720 -0.2735  0.4273 -0.5038
  444EMI     C4 8421   3.631   5.890   4.792  0.2149 -0.1548 -0.0936
  444EMI     C5 8422   3.552   5.966   4.709  0.3404 -0.1077  0.8088
  444EMI     H2 8423   3.786   5.855   4.517  0.7529 -1.6672 -1.5729
  444EMI     H4 8424   3.620   5.873   4.895 -0.7921  1.1954 -0.7094
  444EMI     H5 8425   3.460   6.016   4.736  0.9726  0.8947  0.3577
  444EMI    C1' 8426   3.854   5.782   4.783 -0.1204  0.6221  0.9455
  444EMI    H1' 8427   3.940   5.808   4.723  0.4983 -3.0134 -0.3836
  444EMI    H1' 8428   3.868   5.819   4.884  1.9910 -1.3539  1.5577
  444EMI    H1' 8429   3.847   5.671   4.787  0.9507  0.4187 -2.3394
  444EMI    C1" 8430   3.581   6.056   4.478  0.5270  0.3899  0.1559
  444EMI    H1" 8431   3.637   6.154   4.507  1.3970  1.7498  3.0387
  444EMI    H1" 8432   3.472   6.082   4.484 -1.5863 -0.7019 -0.9060
  444EMI    C2" 8433   3.616   6.008   4.333 -0.3013 -0.6084 -0.4032
  444EMI    H2" 8434   3.718   5.987   4.323 -0.0624 -1.0374  0.5474
  444EMI    H2" 8435   3.565   5.919   4.307 -0.5512  1.8351 -0.9703
  444EMI    H2" 8436   3.587   6.091   4.267 -0.5590 -0.3304 -1.0922
  445EMI     N1 8437   4.083   1.898   5.711  0.3348 -0.2889 -0.4489
  445EMI     C2 8438   4.173   1.987   5.759  0.3761 -1.1293  0.2189
  445EMI     N3 8439   4.218   2.060   5.656  0.5307  0.0071  0.0843
  445EMI     C4 8440   4.169   2.008   5.540 -0.0932 -0.0597  0.0532
  445EMI     C5 8441   4.079   1.910   5.575  0.3483 -0.4233  0.7241
  445EMI     H2 8442   4.204   1.993   5.865  2.2261 -0.1664 -1.0429
  445EMI     H4 8443   4.193   2.037   5.443  0.2157  0.5296  0.3690
  445EMI     H5 8444   4.015   1.837   5.525 -0.8128 -0.3780  0.4281
  445EMI    C1' 8445   4.311   2.174   5.649 -0.2719 -0.3986 -0.0564
  445EMI    H1' 8446   4.291   2.224   5.546 -1.4981  1.4138 -1.3782
  445EMI    H1' 8447   4.293   2.250   5.721 -1.2606  0.0890  1.1716
  445EMI    H1' 8448   4.416   2.148   5.661 -1.4654 -0.3567 -1.1558
  445EMI    C1" 8449   4.014   1.788   5.775 -0.5413  0.1701 -0.6204
  445EMI    H1" 8450   4.006   1.829   5.877  0.3587 -1.1547 -0.6615
  445EMI    H1" 8451   4.073   1.698   5.776 -0.7643 -1.5562  1.6288
  445EMI    C2" 8452   3.878   1.763   5.719  1.3270  0.6087 -0.1461
  445EMI    H2" 8453   3.831   1.677   5.765  0.2064 -0.7003 -0.7208
  445EMI    H2" 8454   3.808   1.843   5.733  0.9870 -1.2227  0.0772
  445EMI    H2" 8455   3.891   1.739   5.615 -1.2161  0.6207  1.7774
  446EMI     N1 8456   6.817   4.101   2.134  0.1980 -0.7075  0.0282
  446EMI     C2 8457   6.722   4.132   2.223  0.4328  0.1564 -0.7209
  446EMI     N3 8458   6.653   4.238   2.176 -0.2474  0.0361 -0.3563
  446EMI     C4 8459   6.716   4.287   2.064  0.2145 -0.0021  0.4441
  446EMI     C5 8460   6.820   4.204   2.036  0.2974 -0.9800  0.3496
  446EMI     H2 8461   6.700   4.074   2.310  0.8827  0.7490 -1.0705
  446EMI     H4 8462   6.681   4.376   2.006 -4.1372  2.5862  5.1999
  446EMI     H5 8463   6.894   4.213   1.957 -2.1297  0.3181 -0.7063
  446EMI    C1' 8464   6.536   4.298   2.242 -0.1094 -0.1443 -0.1880
  446EMI    H1' 8465   6.555   4.331   2.348 -0.2284 -1.3717 -0.7446
  446EMI    H1' 8466   6.500   4.386   2.192 -2.1632 -0.6291  0.5805
  446EMI    H1' 8467   6.459   4.224   2.240 -0.3061 -1.6861 -1.8177
  446EMI    C1" 8468   6.909   3.991   2.135 -0.0843 -0.2115  0.2683
  446EMI    H1" 8469   6.909   3.953   2.233  1.1190  1.6465 -4.0903
  446EMI    H1" 8470   7.010   4.025   2.123 -2.3587 -1.1840 -3.2640
  446EMI    C2" 8471   6.878   3.878   2.037  0.4669 -0.8467 -0.0280
  446EMI    H2" 8472   6.886   3.918   1.933  1.2054  3.5489  0.2567
  446EMI    H2" 8473   6.953   3.798   2.060  0.8207  1.1886  0.1170
  446EMI    H2" 8474   6.777   3.839   2.055 -2.2158  0.3403 -0.3593
  447EMI     N1 8475   3.715   6.255   2.613 -0.4966  0.0021 -0.0517
  447EMI     C2 8476   3.610   6.176   2.623  0.1191 -0.0500 -0.1907
  447EMI     N3 8477   3.544   6.167   2.507 -0.1528  0.4028 -0.1332
  447EMI     C4 8478   3.613   6.253   2.421 -0.2507  0.7739  0.2613
  447EMI     C5 8479   3.723   6.291   2.481 -0.6357 -1.1616  0.2422
  447EMI     H2 8480   3.569   6.116   2.708 -0.4788 -0.9189 -0.3218
  447EMI     H4 8481   3.599   6.281   2.320  1.1450  0.3263  0.8982
  447EMI     H5 8482   3.805   6.359   2.438  1.9678  0.3971 -1.8026
  447EMI    C1' 8483   3.420   6.094   2.469  0.2804 -0.2614 -0.5549
  447EMI    H1' 8484   3.342   6.156   2.439  0.0868  0.4649 -0.3610
  447EMI    H1' 8485   3.444   6.036   2.384 -0.4125 -2.1335  0.9197
  447EMI    H1' 8486   3.380   6.034   2.557 -0.6564  2.1685  1.3111
  447EMI    C1" 8487   3.813   6.296   2.714  0.3907  0.7564 -0.2978
  447EMI    H1" 8488   3.761   6.291   2.810  0.2987  0.3657  0.4381
  447EMI    H1" 8489   3.848   6.403   2.696 -0.2479 -1.5083 -0.1361
  447EMI    C2" 8490   3.929   6.203   2.724  0.0364 -0.5006 -0.5273
  447EMI    H2" 8491   3.987   6.192   2.637  0.8915 -2.1762 -0.8662
  447EMI    H2" 8492   3.991   6.240   2.806  1.6601  0.0041  0.4317
  447EMI    H2" 8493   3.901   6.104   2.756 -2.0692  1.5628  0.8073
  448EMI     N1 8494   4.976   2.993   2.684  0.1603  0.1584 -0.2897
  448EMI     C2 8495   4.878   3.045   2.604  0.5066  0.1715 -0.1958
  448EMI     N3 8496   4.775   2.958   2.602 -0.8199  0.2223 -0.3545
  448EMI     C4 8497   4.805   2.852   2.688 -0.0548  0.4688  0.7043
  448EMI     C5 8498   4.929   2.869   2.727  0.7423  0.0256 -0.2153
  448EMI     H2 8499   4.879   3.145   2.563  3.8440  1.2282 -0.3011
  448EMI     H4 8500   4.753   2.764   2.709  2.1381  1.0018 -1.9619
  448EMI     H5 8501   4.985   2.795   2.779  2.0393  3.0461 -2.7932
  448EMI    C1' 8502   4.642   2.974   2.551 -0.1398  0.1331  0.4031
  448EMI    H1' 8503   4.574   2.923   2.619 -1.2653  1.8956  0.5480
  448EMI    H1' 8504   4.611   3.077   2.541  0.4329  2.2448 -0.2249
  448EMI    H1' 8505   4.640   2.944   2.443  0.4883  1.8324 -0.9342
  448EMI    C1" 8506   5.113   3.033   2.712 -0.0346 -0.5747  0.4938
  448EMI    H1" 8507   5.159   3.045   2.618 -2.9214  0.6487  2.1677
  448EMI    H1" 8508   5.158   2.955   2.774 -1.8334  2.3954 -1.2197
  448EMI    C2" 8509   5.123   3.160   2.785  1.0693  0.1611 -0.7938
  448EMI    H2" 8510   5.076   3.154   2.887 -1.1433 -2.5536 -0.6640
  448EMI    H2" 8511   5.227   3.191   2.804  2.2826  0.9486 -0.5863
  448EMI    H2" 8512   5.089   3.246   2.732  1.0214  3.2595  1.2102
  449EMI     N1 8513   4.930   1.411   5.563 -0.3715 -0.3680 -0.5119
  449EMI     C2 8514   4.896   1.431   5.438  0.1854 -0.4399  0.2416
  449EMI     N3 8515   4.775   1.493   5.425 -0.0804  0.1988  0.5184
  449EMI     C4 8516   4.743   1.533   5.550  0.3761  0.3216  0.1038
  449EMI     C5 8517   4.843   1.487   5.633 -0.8063 -0.6336 -0.1885
  449EMI     H2 8518   4.945   1.381   5.357  1.7401  0.8543 -0.5762
  449EMI     H4 8519   4.660   1.591   5.581 -0.5491 -0.1351  0.2658
  449EMI     H5 8520   4.853   1.505   5.733 -1.1066  0.7127 -1.4269
  449EMI    C1' 8521   4.686   1.516   5.316 -0.4291 -0.0637  0.0943
  449EMI    H1' 8522   4.588   1.537   5.365 -2.4585  0.3749  1.3110
  449EMI    H1' 8523   4.725   1.597   5.267  1.5105  1.9204  0.8646
  449EMI    H1' 8524   4.685   1.431   5.247  3.6174  1.2269 -0.6393
  449EMI    C1" 8525   5.035   1.328   5.630  0.4934  0.1604  0.5083
  449EMI    H1" 8526   5.070   1.244   5.567  0.2905 -2.4869 -0.1816
  449EMI    H1" 8527   4.984   1.283   5.717  0.2399 -1.9943 -0.6939
  449EMI    C2" 8528   5.144   1.420   5.674  0.2551  0.1974  0.0121
  449EMI    H2" 8529   5.230   1.427   5.602 -1.5023 -1.1317 -0.2902
  449EMI    H2" 8530   5.109   1.521   5.694  0.6338  1.3003 -0.8119
  449EMI    H2" 8531   5.173   1.387   5.771 -0.6834 -0.3318 -1.7385
  450EMI     N1 8532   5.396   2.476   2.174 -0.5420 -0.0997 -0.3508
  450EMI     C2 8533   5.462   2.366   2.214 -0.5917 -0.0695  0.5298
  450EMI     N3 8534   5.569   2.405   2.288  0.3482 -0.0580  0.1655
  450EMI     C4 8535   5.564   2.541   2.300 -0.1118 -0.5881  0.2866
  450EMI     C5 8536   5.455   2.582   2.236 -0.2397  0.1073  0.1727
  450EMI     H2 8537   5.450   2.259   2.184  1.5888 -0.3664  0.0487
  450EMI     H4 8538   5.639   2.600   2.348 -2.4648  2.3238  0.0136
  450EMI     H5 8539   5.434   2.684   2.232  1.7873 -1.9576  1.0903
  450EMI    C1' 8540   5.684   2.330   2.354 -0.6908 -1.0866 -0.4744
  450EMI    H1' 8541   5.647   2.231   2.376 -1.3032  2.1929 -0.4362
  450EMI    H1' 8542   5.769   2.321   2.290 -1.1205  1.0440  0.5549
  450EMI    H1' 8543   5.722   2.382   2.444 -0.5832 -1.5849  1.2689
  450EMI    C1" 8544   5.276   2.500   2.093 -0.0809 -0.0478 -0.0440
  450EMI    H1" 8545   5.205   2.548   2.152 -1.1112  3.2368 -1.8289
  450EMI    H1" 8546   5.248   2.407   2.055  1.4644  1.7184  0.6204
  450EMI    C2" 8547   5.312   2.589   1.972 -0.2943 -0.4395  0.2096
  450EMI    H2" 8548   5.378   2.673   1.998  1.1728 -0.5316  0.7468
  450EMI    H2" 8549   5.363   2.530   1.897  1.0949 -3.0077  0.0027
  450EMI    H2" 8550   5.223   2.627   1.919  0.8303 -0.0230  0.4043
  451EMI     N1 8551   6.447   3.181   2.996  0.2279 -0.1846 -0.2980
  451EMI     C2 8552   6.545   3.112   2.936  0.3996  0.5469  0.1237
  451EMI     N3 8553   6.606   3.042   3.027 -0.5489 -0.4627 -0.2664
  451EMI     C4 8554   6.533   3.049   3.142  0.5533 -0.5628  0.2039
  451EMI     C5 8555   6.441   3.147   3.128  0.0799 -0.3524 -0.6495
  451EMI     H2 8556   6.552   3.126   2.832 -1.7256 -0.3672  0.8179
  451EMI     H4 8557   6.536   2.993   3.232  2.5941 -0.3136 -2.1803
  451EMI     H5 8558   6.358   3.179   3.187 -0.3238  2.4320 -1.8324
  451EMI    C1' 8559   6.726   2.958   3.015 -0.1542  1.1606  0.0118
  451EMI    H1' 8560   6.748   2.903   3.101  1.5045 -0.2031 -1.9222
  451EMI    H1' 8561   6.710   2.893   2.930  0.2898 -1.2405 -1.8480
  451EMI    H1' 8562   6.814   3.013   2.977  0.0377 -1.5854 -0.2919
  451EMI    C1" 8563   6.365   3.287   2.936 -0.1834  0.2480  0.1354
  451EMI    H1" 8564   6.389   3.313   2.837 -1.6472  2.1060  1.0214
  451EMI    H1" 8565   6.381   3.385   2.986 -1.6651  3.3585  2.9559
  451EMI    C2" 8566   6.215   3.260   2.949  0.0405 -0.4730 -0.2940
  451EMI    H2" 8567   6.165   3.324   2.879  2.9128 -0.2009  0.4561
  451EMI    H2" 8568   6.181   3.160   2.918 -0.4972  1.5499 -2.3792
  451EMI    H2" 8569   6.185   3.272   3.055  1.0025 -0.7939  1.8162
  452EMI     N1 8570   1.793   4.905   0.202 -0.9457 -0.2114  0.1465
  452EMI     C2 8571   1.738   4.863   0.088  0.8835 -0.1037 -0.0132
  452EMI     N3 8572   1.607   4.841   0.108  0.4392 -0.4892 -0.2574
  452EMI     C4 8573   1.571   4.871   0.236 -0.2011 -0.4366 -0.0041
  452EMI     C5 8574   1.682   4.920   0.293 -0.2261  0.2680  0.1545
  452EMI     H2 8575   1.789   4.825   0.001 -1.2828  0.5611 -0.6154
  452EMI     H4 8576   1.473   4.865   0.284 -0.7306  0.4518 -2.1032
  452EMI     H5 8577   1.681   4.941   0.393  0.7389 -2.9877  0.5203
  452EMI    C1' 8578   1.500   4.796   0.020 -0.2225  0.2585  0.0777
  452EMI    H1' 8579   1.551   4.765  -0.076 -2.6115  0.6549 -0.2864
  452EMI    H1' 8580   1.436   4.713   0.061  0.6920  0.0481 -0.4878
  452EMI    H1' 8581   1.427   4.870  -0.014  0.2624  0.0301 -1.7364
  452EMI    C1" 8582   1.927   4.946   0.241 -0.0342  0.7647  0.1357
  452EMI    H1" 8583   2.000   4.902   0.169 -0.7234 -0.3690 -1.1446
  452EMI    H1" 8584   1.938   4.905   0.340 -1.3053  1.0519 -2.0379
  452EMI    C2" 8585   1.935   5.096   0.246  0.3286  0.1618  0.1878
  452EMI    H2" 8586   2.011   5.124   0.184 -3.4333 -2.3724  1.8676
  452EMI    H2" 8587   1.848   5.142   0.203 -4.2389 -1.2725  5.6412
  452EMI    H2" 8588   1.952   5.130   0.349 -0.2487 -0.3438  0.0943
  453EMI     N1 8589   1.074   2.496   5.047  0.0398 -0.5038  0.1885
  453EMI     C2 8590   1.024   2.609   5.103 -0.7517 -0.5201  0.3544
  453EMI     N3 8591   1.122   2.701   5.115  0.3362 -0.6735  0.1613
  453EMI     C4 8592   1.243   2.633   5.084 -0.2124  0.3204  0.2465
  453EMI     C5 8593   1.210   2.508   5.036  0.4965  0.4931  0.3755
  453EMI     H2 8594   0.920   2.623   5.130  3.5506 -0.3026  1.0228
  453EMI     H4 8595   1.346   2.670   5.098  0.8325 -0.1627 -0.2793
  453EMI     H5 8596   1.276   2.429   5.003  0.5304  1.9847 -0.1492
  453EMI    C1' 8597   1.127   2.839   5.169  0.3571 -0.1611  0.1463
  453EMI    H1' 8598   1.225   2.872   5.173 -0.4501  0.0931 -0.4319
  453EMI    H1' 8599   1.068   2.906   5.110 -0.1581  0.5694  0.2208
  453EMI    H1' 8600   1.085   2.833   5.271 -1.4455  0.5651  0.5348
  453EMI    C1" 8601   1.006   2.375   5.003  0.1883 -0.1538 -0.5104
  453EMI    H1" 8602   0.895   2.377   5.019  1.4036 -1.2239  0.3894
  453EMI    H1" 8603   1.037   2.288   5.066 -0.3376 -1.1084  1.7894
  453EMI    C2" 8604   1.039   2.345   4.859  1.0521  0.0689 -0.1668
  453EMI    H2" 8605   1.147   2.352   4.848  0.5321 -1.2477 -0.3481
  453EMI    H2" 8606   1.021   2.234   4.844  2.1641 -2.1596  2.2773
  453EMI    H2" 8607   0.975   2.408   4.797  1.8786  1.0302  2.3238
  454EMI     N1 8608   0.797   0.835   4.215 -0.0658 -0.1488 -0.1104
  454EMI     C2 8609   0.904   0.762   4.271  0.2130  0.0247 -0.5871
  454EMI     N3 8610   1.010   0.769   4.191 -0.7633  0.5425  0.1030
  454EMI     C4 8611   0.968   0.824   4.076  1.3577 -0.1174 -0.2889
  454EMI     C5 8612   0.843   0.871   4.090 -0.2935 -0.2058  0.0745
  454EMI     H2 8613   0.903   0.717   4.370 -0.6219 -0.7204 -0.7895
  454EMI     H4 8614   1.023   0.828   3.982 -0.3816 -0.8626 -2.2358
  454EMI     H5 8615   0.790   0.915   4.002  0.5383  1.4691 -0.0237
  454EMI    C1' 8616   1.142   0.704   4.195  0.2433 -0.5067 -0.0890
  454EMI    H1' 8617   1.220   0.775   4.154  0.7010  1.7121 -1.4450
  454EMI    H1' 8618   1.172   0.684   4.301  3.5631 -3.6957  0.1193
  454EMI    H1' 8619   1.128   0.609   4.131  0.1343 -2.8921  1.1712
  454EMI    C1" 8620   0.655   0.846   4.262 -0.4135  0.1048  0.2227
  454EMI    H1" 8621   0.597   0.919   4.200  1.7289 -0.0686  0.5747
  454EMI    H1" 8622   0.666   0.894   4.360 -0.0873  2.3268 -1.0390
  454EMI    C2" 8623   0.587   0.709   4.269  0.7120 -1.2030 -0.5083
  454EMI    H2" 8624   0.639   0.648   4.344 -0.4245 -2.0251  4.1484
  454EMI    H2" 8625   0.483   0.717   4.286 -2.4575  0.7544  0.7380
  454EMI    H2" 8626   0.609   0.672   4.175  2.6226  0.1258  0.3361
  455EMI     N1 8627   1.842   6.806   5.795  0.0607  0.8096  0.0653
  455EMI     C2 8628   1.764   6.848   5.690 -0.2648 -0.2382  0.1155
  455EMI     N3 8629   1.739   6.739   5.611 -0.1541 -0.6891 -0.0703
  455EMI     C4 8630   1.796   6.633   5.667  0.0445  0.3849 -0.0265
  455EMI     C5 8631   1.871   6.675   5.770 -0.3358  0.1092 -0.4575
  455EMI     H2 8632   1.727   6.942   5.664  2.0578  0.5931 -2.8396
  455EMI     H4 8633   1.777   6.534   5.635 -0.5785 -3.1448 -0.1816
  455EMI     H5 8634   1.931   6.610   5.832 -0.3793 -1.9942  0.6814
  455EMI    C1' 8635   1.662   6.721   5.484 -0.8687  0.0056 -0.5595
  455EMI    H1' 8636   1.711   6.637   5.430  2.3619 -2.7954 -0.2272
  455EMI    H1' 8637   1.551   6.720   5.503  1.7284  2.3909 -2.3234
  455EMI    H1' 8638   1.675   6.810   5.419 -0.6152  1.9604 -0.9516
  455EMI    C1" 8639   1.883   6.890   5.921  0.2413  0.6102  0.6508
  455EMI    H1" 8640   1.853   6.993   5.907 -1.3317 -1.0275  0.9733
  455EMI    H1" 8641   1.992   6.891   5.936 -0.6603  0.8133  0.5429
  455EMI    C2" 8642   1.819   6.836   6.047  0.0181  0.0280 -0.3904
  455EMI    H2" 8643   1.849   6.729   6.056  0.2891 -1.6780 -1.1017
  455EMI    H2" 8644   1.873   6.897   6.117 -1.6163  0.6209 -0.5772
  455EMI    H2" 8645   1.713   6.855   6.039  1.6009  0.2274  0.7118
  456EMI     N1 8646   4.673   3.748   2.245 -0.1371  0.0606  0.4954
  456EMI     C2 8647   4.715   3.736   2.374  0.4916  0.2024 -0.5342
  456EMI     N3 8648   4.793   3.842   2.408  0.3629 -0.2301 -1.2456
  456EMI     C4 8649   4.807   3.921   2.292 -0.1628 -0.2836 -0.6130
  456EMI     C5 8650   4.725   3.866   2.196  0.0828  0.4927 -0.3566
  456EMI     H2 8651   4.689   3.656   2.436 -3.3041  0.5319 -1.4947
  456EMI     H4 8652   4.845   4.023   2.274  1.1033  2.6814  0.4056
  456EMI     H5 8653   4.700   3.912   2.101  0.0713  2.5548 -1.9143
  456EMI    C1' 8654   4.841   3.886   2.539 -0.5457  0.1461  0.1908
  456EMI    H1' 8655   4.825   3.997   2.546 -0.7934  0.6097 -0.6786
  456EMI    H1' 8656   4.801   3.847   2.632  4.1750  2.5998 -1.5024
  456EMI    H1' 8657   4.947   3.878   2.532  0.4288  1.1406  0.0011
  456EMI    C1" 8658   4.569   3.671   2.172 -0.2497  0.1249 -0.4961
  456EMI    H1" 8659   4.614   3.587   2.124  0.4912  1.1151  2.5300
  456EMI    H1" 8660   4.527   3.732   2.096  0.2850  0.3306 -0.2400
  456EMI    C2" 8661   4.451   3.624   2.264  0.1460  0.7253  0.1563
  456EMI    H2" 8662   4.363   3.603   2.199 -1.5216 -0.3404 -1.0657
  456EMI    H2" 8663   4.473   3.533   2.318 -2.4968  1.0927 -0.5749
  456EMI    H2" 8664   4.426   3.693   2.338  1.5934 -0.3699 -1.6969
  457EMI     N1 8665   0.392   1.910   0.465  0.6688  0.1856 -0.4422
  457EMI     C2 8666   0.324   1.960   0.364  0.2993  0.6809 -0.2186
  457EMI     N3 8667   0.325   1.867   0.264  0.4715  0.4833 -0.2523
  457EMI     C4 8668   0.412   1.766   0.304 -0.2174  0.1296 -0.2881
  457EMI     C5 8669   0.452   1.790   0.431 -0.2584  0.3118  0.0397
  457EMI     H2 8670   0.267   2.050   0.349  0.3481 -2.9039 -0.1899
  457EMI     H4 8671   0.429   1.680   0.248 -2.2573  1.3653  2.3590
  457EMI     H5 8672   0.515   1.727   0.494 -1.9774 -0.5356  0.3588
  457EMI    C1' 8673   0.270   1.873   0.128  0.1257 -0.6314  0.4400
  457EMI    H1' 8674   0.287   1.969   0.080 -1.7558  0.8052  1.8829
  457EMI    H1' 8675   0.319   1.795   0.069  0.3555 -0.0064 -0.3425
  457EMI    H1' 8676   0.163   1.837   0.134  1.7765  1.3170 -0.5444
  457EMI    C1" 8677   0.419   1.976   0.597  0.0443 -0.9900  0.1544
  457EMI    H1" 8678   0.423   1.911   0.680  0.0934  1.2008  0.9074
  457EMI    H1" 8679   0.350   2.060   0.607  1.2391  0.5570  1.3678
  457EMI    C2" 8680   0.553   2.051   0.589 -0.2111 -0.0906  0.7148
  457EMI    H2" 8681   0.548   2.123   0.507  0.6769 -0.4999  2.1747
  457EMI    H2" 8682   0.574   2.107   0.678  0.9361  0.3047 -0.5426
  457EMI    H2" 8683   0.634   1.978   0.575 -1.2102  0.3858  0.3443
  458EMI     N1 8684   1.303   4.641   3.693  0.4776 -0.7006 -0.0116
  458EMI     C2 8685   1.286   4.552   3.594  0.0891  0.0319  0.4862
  458EMI     N3 8686   1.358   4.590   3.490  0.0968 -0.7940 -0.1929
  458EMI     C4 8687   1.438   4.690   3.536  0.5517  0.7837 -0.6074
  458EMI     C5 8688   1.406   4.723   3.664 -0.6653 -0.7632 -0.6266
  458EMI     H2 8689   1.234   4.456   3.604 -1.6028 -1.1996  0.0036
  458EMI     H4 8690   1.521   4.731   3.479  0.6008  0.7870 -0.0953
  458EMI     H5 8691   1.442   4.794   3.730  2.6135  2.9244 -0.6450
  458EMI    C1' 8692   1.364   4.535   3.354 -0.4469 -0.3188 -0.6756
  458EMI    H1' 8693   1.359   4.617   3.278  1.3143  1.3448  1.2536
  458EMI    H1' 8694   1.448   4.471   3.349  0.1447  1.7459 -0.6783
  458EMI    H1' 8695   1.273   4.469   3.362  1.7166 -0.5527 -0.4015
  458EMI    C1" 8696   1.243   4.639   3.831 -0.1764 -0.6171  0.3297
  458EMI    H1" 8697   1.143   4.603   3.806  1.4969  1.0402 -2.8523
  458EMI    H1" 8698   1.244   4.738   3.882  0.1244  3.7950  2.5946
  458EMI    C2" 8699   1.304   4.525   3.914 -0.6047 -0.2057  0.4870
  458EMI    H2" 8700   1.313   4.436   3.854  0.9312  0.0869  0.4990
  458EMI    H2" 8701   1.399   4.562   3.945 -2.1999 -2.6394 -1.5040
  458EMI    H2" 8702   1.238   4.512   3.999 -2.4556 -0.4339 -0.4101
  459EMI     N1 8703   3.065   2.959   6.672 -0.5073 -0.2230  0.0412
  459EMI     C2 8704   3.044   3.051   6.771 -0.0162  0.0963 -0.6972
  459EMI     N3 8705   2.928   3.112   6.755 -0.4564  0.0398  0.1415
  459EMI     C4 8706   2.870   3.062   6.638  0.1593 -0.4863 -0.4486
  459EMI     C5 8707   2.954   2.965   6.589  0.0076 -0.1630  0.2705
  459EMI     H2 8708   3.115   3.087   6.850 -0.2997  0.5766 -0.3946
  459EMI     H4 8709   2.782   3.102   6.598 -2.7765  0.7283  2.9031
  459EMI     H5 8710   2.941   2.900   6.501  0.7267 -2.5660 -0.2779
  459EMI    C1' 8711   2.877   3.233   6.820  0.1633  0.0464 -0.0194
  459EMI    H1' 8712   2.936   3.323   6.818  0.6599  1.9808  0.2773
  459EMI    H1' 8713   2.780   3.261   6.768 -4.1927 -0.2058  2.5018
  459EMI    H1' 8714   2.843   3.212   6.921  2.7149  2.2394  0.4404
  459EMI    C1" 8715   3.180   2.868   6.646 -0.4210  0.4707  0.4930
  459EMI    H1" 8716   3.279   2.914   6.659 -0.9163 -2.3186  2.0664
  459EMI    H1" 8717   3.174   2.825   6.545  1.5827 -1.7220  0.4326
  459EMI    C2" 8718   3.179   2.746   6.740  0.4696 -0.0681 -0.7214
  459EMI    H2" 8719   3.081   2.709   6.752 -0.4040  2.3127 -2.1089
  459EMI    H2" 8720   3.238   2.660   6.710 -0.8989 -0.2800 -0.5952
  459EMI    H2" 8721   3.212   2.776   6.839  0.4925  1.4033  2.1395
  460EMI     N1 8722   0.856   6.174   3.911  0.4815 -0.6203  0.0013
  460EMI     C2 8723   0.755   6.090   3.933  0.4614 -0.9536  0.5305
  460EMI     N3 8724   0.662   6.105   3.829 -0.8651  0.1573 -0.5262
  460EMI     C4 8725   0.707   6.204   3.749 -0.1819 -0.0671  0.3860
  460EMI     C5 8726   0.820   6.251   3.800 -0.1012  0.3867  0.5243
  460EMI     H2 8727   0.744   6.018   4.012  1.1194  0.6908  1.1023
  460EMI     H4 8728   0.660   6.240   3.658 -0.4189  0.7321  2.2690
  460EMI     H5 8729   0.865   6.336   3.753 -0.0476 -2.3390 -1.7941
  460EMI    C1' 8730   0.538   6.042   3.808 -0.1346 -0.1515 -0.1112
  460EMI    H1' 8731   0.544   5.954   3.740  0.3827 -1.1585  1.2082
  460EMI    H1' 8732   0.497   6.006   3.905  3.7163  1.1091  2.5241
  460EMI    H1' 8733   0.472   6.114   3.766 -2.2209  0.8550  1.8240
  460EMI    C1" 8734   0.977   6.195   3.995  0.2889 -0.1002  0.0676
  460EMI    H1" 8735   1.056   6.245   3.929  1.1869  0.7737  0.2724
  460EMI    H1" 8736   1.022   6.103   4.025 -1.6260 -0.2022 -1.9028
  460EMI    C2" 8737   0.950   6.292   4.106  0.3994 -0.4000 -0.4579
  460EMI    H2" 8738   0.982   6.257   4.199 -2.1459 -0.6117  0.0604
  460EMI    H2" 8739   0.984   6.390   4.079 -0.6644  1.1193 -1.5767
  460EMI    H2" 8740   0.843   6.303   4.121  0.9037  0.9796 -0.2108
  461EMI     N1 8741   4.397   1.669   0.314 -0.2909  0.4556  0.4236
  461EMI     C2 8742   4.361   1.589   0.415 -0.1809 -0.6755  0.2264
  461EMI     N3 8743   4.313   1.471   0.377  0.0137 -0.3551 -0.0613
  461EMI     C4 8744   4.332   1.471   0.237 -0.1102  0.2617 -0.3242
  461EMI     C5 8745   4.383   1.588   0.201  0.4972 -0.3287 -0.5079
  461EMI     H2 8746   4.366   1.607   0.525  0.9680 -1.7720  1.6276
  461EMI     H4 8747   4.308   1.399   0.163  0.7232 -0.7564 -1.2795
  461EMI     H5 8748   4.405   1.623   0.100 -3.6877  0.5442 -0.6437
  461EMI    C1' 8749   4.271   1.368   0.466  0.4227 -0.4480 -0.2633
  461EMI    H1' 8750   4.298   1.396   0.567 -2.8183  1.2324 -1.3736
  461EMI    H1' 8751   4.160   1.362   0.462 -0.7827  2.9796 -2.2461
  461EMI    H1' 8752   4.301   1.271   0.434 -1.6097  1.2867 -0.0196
  461EMI    C1" 8753   4.444   1.811   0.308  0.4585  0.4395 -0.2797
  461EMI    H1" 8754   4.373   1.864   0.368 -0.2004 -0.1122  0.5951
  461EMI    H1" 8755   4.458   1.849   0.204  1.5477 -1.4878 -1.0407
  461EMI    C2" 8756   4.573   1.822   0.377  0.0814  0.2124  0.5114
  461EMI    H2" 8757   4.563   1.821   0.489  0.0874 -1.9563  1.9428
  461EMI    H2" 8758   4.642   1.745   0.339 -0.9534 -1.8477 -0.8438
  461EMI    H2" 8759   4.628   1.913   0.360 -2.6080  0.8307  2.7644
  462EMI     N1 8760   1.338   3.058   0.340  0.1681 -0.3318  0.9052
  462EMI     C2 8761   1.253   3.103   0.243 -0.8876  0.5872 -0.2810
  462EMI     N3 8762   1.201   3.001   0.172 -0.2328  0.4648 -0.4270
  462EMI     C4 8763   1.266   2.887   0.223 -0.0523 -0.4160 -0.0937
  462EMI     C5 8764   1.352   2.921   0.322 -0.8765 -0.9660 -0.7041
  462EMI     H2 8765   1.223   3.204   0.219  0.1401 -2.9885 -1.2293
  462EMI     H4 8766   1.260   2.799   0.174 -1.6344  1.5873  2.7686
  462EMI     H5 8767   1.419   2.872   0.387 -0.4282  0.8778 -1.8019
  462EMI    C1' 8768   1.107   2.982   0.060  0.0923 -0.3259 -1.4102
  462EMI    H1' 8769   1.114   3.056  -0.018  1.8715  2.3544  0.3547
  462EMI    H1' 8770   1.110   2.880   0.024  2.3946 -1.1441  2.1140
  462EMI    H1' 8771   1.011   2.991   0.105  1.8174  1.5469 -2.1851
  462EMI    C1" 8772   1.397   3.121   0.459 -0.9616 -0.1540 -0.1393
  462EMI    H1" 8773   1.447   3.042   0.511 -2.2234  0.8444 -2.4183
  462EMI    H1" 8774   1.317   3.166   0.521  0.8175 -1.7272 -0.9873
  462EMI    C2" 8775   1.509   3.226   0.419  0.2801 -0.1363  0.1087
  462EMI    H2" 8776   1.575   3.183   0.347 -1.7352 -2.3437 -1.8988
  462EMI    H2" 8777   1.459   3.314   0.375 -3.1469 -1.7114  0.9574
  462EMI    H2" 8778   1.570   3.259   0.504 -1.7573  2.0970 -2.3367
  463EMI     N1 8779   1.191   1.902   3.233  0.3548 -0.8159 -0.2395
  463EMI     C2 8780   1.245   1.967   3.337 -0.3743  0.2472  0.6273
  463EMI     N3 8781   1.149   2.016   3.414 -0.5704  0.2613  0.1415
  463EMI     C4 8782   1.027   1.991   3.347  0.3427  0.3895 -0.6763
  463EMI     C5 8783   1.054   1.919   3.237 -0.4127 -0.1698  0.9772
  463EMI     H2 8784   1.349   1.963   3.364 -2.3896 -0.7041 -0.9110
  463EMI     H4 8785   0.932   2.028   3.383 -1.0627  0.5285  0.4741
  463EMI     H5 8786   0.992   1.879   3.155 -2.3303 -1.4967  1.3605
  463EMI    C1' 8787   1.147   2.083   3.544 -0.3433  0.4499  0.1407
  463EMI    H1' 8788   1.209   2.030   3.611 -1.3984 -0.7536  0.8403
  463EMI    H1' 8789   1.173   2.188   3.539 -0.4404 -0.6310  1.3800
  463EMI    H1' 8790   1.044   2.085   3.588 -3.7961 -0.9504 -0.7856
  463EMI    C1" 8791   1.257   1.843   3.107 -0.2126  0.7406  0.4540
  463EMI    H1" 8792   1.273   1.932   3.043  0.3585  1.4220 -0.1849
  463EMI    H1" 8793   1.186   1.776   3.060  0.5178 -0.0709  2.7853
  463EMI    C2" 8794   1.388   1.769   3.132 -0.0512 -0.0918  0.2879
  463EMI    H2" 8795   1.360   1.682   3.194  0.2884  1.0394  1.6889
  463EMI    H2" 8796   1.432   1.735   3.036 -2.2051  2.1739 -0.1459
  463EMI    H2" 8797   1.463   1.830   3.175  1.9974 -0.9576 -0.5504
  464EMI     N1 8798   4.147   6.635   2.131 -0.1226 -0.2332 -0.2495
  464EMI     C2 8799   4.126   6.579   2.008 -0.0122 -0.4680  0.1738
  464EMI     N3 8800   4.154   6.448   2.011  0.3615 -0.4193  0.0182
  464EMI     C4 8801   4.186   6.417   2.144  0.1471 -0.3335 -0.8530
  464EMI     C5 8802   4.188   6.533   2.209 -0.3132 -0.1981 -0.0074
  464EMI     H2 8803   4.082   6.629   1.920  0.4901 -1.2516 -2.2607
  464EMI     H4 8804   4.215   6.322   2.184  1.8085  1.7428  0.4583
  464EMI     H5 8805   4.218   6.545   2.310 -0.8861  0.8182 -0.9049
  464EMI    C1' 8806   4.146   6.345   1.904 -1.1146  0.0428  0.0918
  464EMI    H1' 8807   4.043   6.354   1.867  0.2135 -0.5001  1.2108
  464EMI    H1' 8808   4.212   6.378   1.829 -1.5648 -2.3610  2.4605
  464EMI    H1' 8809   4.164   6.247   1.941 -2.3994  2.1413 -0.3451
  464EMI    C1" 8810   4.129   6.773   2.185  0.2352 -0.4190  0.3626
  464EMI    H1" 8811   4.121   6.758   2.289  1.4734  0.4871  1.6540
  464EMI    H1" 8812   4.045   6.826   2.140  0.5178 -0.6663  0.3054
  464EMI    C2" 8813   4.264   6.842   2.152 -0.3408  0.4174  0.4611
  464EMI    H2" 8814   4.245   6.943   2.162 -1.1367 -0.4047  2.1599
  464EMI    H2" 8815   4.348   6.794   2.213  1.1854 -0.2561 -0.3969
  464EMI    H2" 8816   4.286   6.824   2.049  1.2502 -2.7321  0.0102
  465EMI     N1 8817   4.931   5.930   1.456 -0.2898  0.7384 -0.0729
  465EMI     C2 8818   4.902   6.002   1.344 -0.3765  0.4045  0.0581
  465EMI     N3 8819   4.993   6.102   1.331 -0.2164  0.1654 -0.4371
  465EMI     C4 8820   5.072   6.101   1.442  0.1600 -0.3477  0.5317
  465EMI     C5 8821   5.038   5.989   1.510  0.0137 -0.5258  0.3041
  465EMI     H2 8822   4.826   5.991   1.270 -2.7895 -1.8680  3.9866
  465EMI     H4 8823   5.155   6.175   1.457 -0.3639 -0.4158 -0.1207
  465EMI     H5 8824   5.087   5.964   1.607 -2.9790  2.1517  1.0402
  465EMI    C1' 8825   4.998   6.202   1.225 -0.1719 -0.3747  0.5528
  465EMI    H1' 8826   5.092   6.186   1.169  0.1584  2.6891 -0.7849
  465EMI    H1' 8827   4.919   6.188   1.149 -1.4606 -1.1354 -0.8236
  465EMI    H1' 8828   4.984   6.306   1.261  2.6836  3.8816  0.5919
  465EMI    C1" 8829   4.864   5.808   1.521  0.2470  0.4401  0.3747
  465EMI    H1" 8830   4.886   5.788   1.620  4.3413 -4.1307 -1.1259
  465EMI    H1" 8831   4.882   5.716   1.464 -1.3097 -1.6078 -0.0453
  465EMI    C2" 8832   4.707   5.821   1.512  0.7172 -0.2204  0.1847
  465EMI    H2" 8833   4.662   5.735   1.556 -0.6870  1.6940  1.8468
  465EMI    H2" 8834   4.678   5.905   1.560  0.9844  2.1860 -1.7124
  465EMI    H2" 8835   4.681   5.817   1.408 -0.4340  0.2811  3.3945
  466EMI     N1 8836   1.213   3.443   0.977 -0.2411 -0.0588 -0.0356
  466EMI     C2 8837   1.094   3.446   1.042 -0.6275  0.5369  0.1704
  466EMI     N3 8838   1.001   3.476   0.946  0.1029  0.1179  0.4811
  466EMI     C4 8839   1.059   3.492   0.825 -0.0902 -0.2177 -0.0536
  466EMI     C5 8840   1.192   3.473   0.842 -0.6262  0.0406  1.1867
  466EMI     H2 8841   1.082   3.418   1.144  0.6219 -1.0793 -1.4407
  466EMI     H4 8842   1.021   3.497   0.729  0.4690 -0.1841  1.1948
  466EMI     H5 8843   1.263   3.464   0.762  2.9151 -1.0505  1.1445
  466EMI    C1' 8844   0.853   3.476   0.960 -0.6011  0.1600 -0.9982
  466EMI    H1' 8845   0.819   3.377   0.924  1.4124  1.5405  0.5669
  466EMI    H1' 8846   0.823   3.493   1.060 -0.7851 -0.2739  0.0989
  466EMI    H1' 8847   0.814   3.561   0.892  0.3581 -0.3129 -1.2312
  466EMI    C1" 8848   1.345   3.418   1.035 -0.7683  0.7955 -0.6332
  466EMI    H1" 8849   1.327   3.429   1.148 -0.7818  1.8769 -0.2018
  466EMI    H1" 8850   1.415   3.494   0.997 -1.7034  4.5141  0.3118
  466EMI    C2" 8851   1.388   3.275   0.992 -0.7449  0.1106 -0.9065
  466EMI    H2" 8852   1.490   3.256   1.028 -2.5128  2.7734  2.0136
  466EMI    H2" 8853   1.323   3.200   1.040 -0.1438 -1.1916  0.2389
  466EMI    H2" 8854   1.385   3.254   0.886 -0.3902 -1.6774  2.1600
  467EMI     N1 8855   2.647   6.562   3.238 -0.0846  0.4299 -0.4383
  467EMI     C2 8856   2.591   6.581   3.119 -0.1964  0.2384  0.0178
  467EMI     N3 8857   2.583   6.457   3.055  0.1184 -0.1174 -0.4447
  467EMI     C4 8858   2.640   6.365   3.145 -0.3285 -0.5651  0.6290
  467EMI     C5 8859   2.672   6.426   3.256 -0.2294  0.0033 -0.1878
  467EMI     H2 8860   2.565   6.678   3.071  0.2071  0.4423  1.1928
  467EMI     H4 8861   2.657   6.260   3.134  0.2440  2.1656 -0.4033
  467EMI     H5 8862   2.737   6.384   3.339  2.6039 -1.8426 -1.6836
  467EMI    C1' 8863   2.521   6.416   2.933  0.0731 -0.1608 -0.4303
  467EMI    H1' 8864   2.506   6.500   2.865 -1.8550  0.6734 -2.8115
  467EMI    H1' 8865   2.583   6.342   2.882  0.7113  0.0247 -1.2301
  467EMI    H1' 8866   2.423   6.361   2.952 -0.4919 -0.9989  1.2913
  467EMI    C1" 8867   2.673   6.649   3.353  0.2411  1.1396  0.5847
  467EMI    H1" 8868   2.783   6.671   3.357 -0.7674  2.9583 -0.9549
  467EMI    H1" 8869   2.631   6.595   3.437 -1.0264 -1.5385 -3.3906
  467EMI    C2" 8870   2.586   6.777   3.346 -0.0175  0.1528 -0.4990
  467EMI    H2" 8871   2.615   6.821   3.248  0.1165 -0.5140 -1.5381
  467EMI    H2" 8872   2.479   6.759   3.336  3.6250 -1.5536  2.7334
  467EMI    H2" 8873   2.605   6.851   3.427 -0.5877  0.3651  2.6745
  468EMI     N1 8874   6.424   5.860   4.046  0.2654  0.0008 -0.6992
  468EMI     C2 8875   6.414   5.984   4.096 -0.6236 -0.4198 -0.2659
  468EMI     N3 8876   6.489   6.069   4.027  0.1340  0.0478  0.2101
  468EMI     C4 8877   6.548   5.997   3.932 -0.8642  0.4234  0.9660
  468EMI     C5 8878   6.508   5.867   3.943  0.0550 -0.2450 -0.6921
  468EMI     H2 8879   6.362   6.013   4.181 -0.3460  2.2372  0.7954
  468EMI     H4 8880   6.611   6.045   3.865 -2.4302 -0.7546  2.2581
  468EMI     H5 8881   6.535   5.780   3.884 -1.8481 -0.5122 -2.5244
  468EMI    C1' 8882   6.491   6.214   4.048 -1.0680 -1.2228 -0.6826
  468EMI    H1' 8883   6.465   6.255   3.953 -2.5355  0.8964 -3.0547
  468EMI    H1' 8884   6.425   6.259   4.129 -0.8901  1.6354  0.6736
  468EMI    H1' 8885   6.591   6.249   4.056  1.1584 -0.3039  1.3953
  468EMI    C1" 8886   6.380   5.732   4.085 -0.6919  0.8672  0.2290
  468EMI    H1" 8887   6.449   5.654   4.056  3.6927  0.9795  0.9528
  468EMI    H1" 8888   6.283   5.711   4.040 -0.1113  0.6552  1.5279
  468EMI    C2" 8889   6.365   5.718   4.233 -0.0462  0.0646  0.1925
  468EMI    H2" 8890   6.339   5.616   4.252  0.3742 -2.3994  2.5131
  468EMI    H2" 8891   6.459   5.755   4.275  1.3821  0.8069 -4.4625
  468EMI    H2" 8892   6.287   5.787   4.271 -2.2194  0.2194 -1.1554
  469EMI     N1 8893   5.920   4.034   6.556  0.0441 -0.7209  0.0406
  469EMI     C2 8894   5.909   4.099   6.434  0.3488 -0.2951  0.5143
  469EMI     N3 8895   5.826   4.030   6.356  0.0888  0.1215  0.2256
  469EMI     C4 8896   5.793   3.915   6.421 -0.0661 -0.3168 -0.3463
  469EMI     C5 8897   5.842   3.920   6.552 -0.1781  0.0692 -0.1625
  469EMI     H2 8898   5.965   4.183   6.404  0.8078 -2.7398  2.3286
  469EMI     H4 8899   5.728   3.836   6.374 -0.0460 -0.6282  0.5238
  469EMI     H5 8900   5.829   3.844   6.634  1.7745 -0.0678  1.3479
  469EMI    C1' 8901   5.780   4.061   6.220  0.6846  0.2068 -0.0435
  469EMI    H1' 8902   5.858   4.047   6.145 -0.7618  0.4002 -0.5724
  469EMI    H1' 8903   5.700   3.991   6.185 -1.4925 -0.1077 -2.4599
  469EMI    H1' 8904   5.749   4.169   6.214 -0.4886 -0.5433 -1.5590
  469EMI    C1" 8905   6.001   4.080   6.669  0.7469  0.4159 -0.2029
  469EMI    H1" 8906   6.059   4.163   6.647 -1.2842 -1.7553 -1.3567
  469EMI    H1" 8907   6.066   4.002   6.699 -0.4610  0.0040 -1.1660
  469EMI    C2" 8908   5.918   4.107   6.787 -0.0462  0.0765  0.1611
  469EMI    H2" 8909   5.864   4.017   6.820  0.3747  0.9112  0.3553
  469EMI    H2" 8910   5.979   4.149   6.865 -1.1393  0.8726 -1.9967
  469EMI    H2" 8911   5.848   4.178   6.763 -1.1994  2.2475 -0.1553
  470EMI     N1 8912   3.042   4.480   4.086  0.2405 -0.4209  0.3713
  470EMI     C2 8913   3.128   4.579   4.123 -0.5674  0.1520 -0.2778
  470EMI     N3 8914   3.230   4.520   4.192 -0.6811  0.0581  0.1170
  470EMI     C4 8915   3.209   4.387   4.202 -0.1819 -0.0477 -0.0746
  470EMI     C5 8916   3.094   4.359   4.139 -0.1435  0.7971 -0.5887
  470EMI     H2 8917   3.119   4.686   4.096  0.6413 -1.1566 -1.8468
  470EMI     H4 8918   3.284   4.324   4.250  1.4293 -1.0481 -1.1865
  470EMI     H5 8919   3.054   4.261   4.116 -0.8424  0.4771 -0.1080
  470EMI    C1' 8920   3.351   4.584   4.255 -0.4186 -0.7751 -0.3327
  470EMI    H1' 8921   3.416   4.499   4.284  0.6346 -2.0630  0.2666
  470EMI    H1' 8922   3.407   4.652   4.188 -1.7412 -0.2245 -2.4832
  470EMI    H1' 8923   3.315   4.635   4.340 -0.4908 -1.0042 -1.3722
  470EMI    C1" 8924   2.909   4.491   4.015 -0.3524 -0.1883 -0.3375
  470EMI    H1" 8925   2.839   4.559   4.063  0.9008  1.2983 -0.9010
  470EMI    H1" 8926   2.867   4.391   4.037 -1.7088 -0.4491 -3.4446
  470EMI    C2" 8927   2.921   4.523   3.865 -0.9824 -0.5349 -0.3913
  470EMI    H2" 8928   2.972   4.445   3.806 -3.2264  0.3307  1.4919
  470EMI    H2" 8929   2.823   4.546   3.828  0.1566 -0.8387  0.4825
  470EMI    H2" 8930   2.979   4.614   3.844  0.2271 -1.9654 -0.1045
  471EMI     N1 8931   5.508   6.679   1.593 -0.4291  1.0535 -0.1703
  471EMI     C2 8932   5.534   6.560   1.652 -0.1112  0.3443  0.1721
  471EMI     N3 8933   5.527   6.569   1.783  0.1805 -0.0150 -0.2307
  471EMI     C4 8934   5.494   6.701   1.813 -0.0436 -0.0594 -0.5595
  471EMI     C5 8935   5.483   6.766   1.699  0.4796 -0.4725  0.2968
  471EMI     H2 8936   5.543   6.475   1.587 -0.1688  0.3092  0.4551
  471EMI     H4 8937   5.485   6.738   1.910 -0.0627 -1.7929  1.4392
  471EMI     H5 8938   5.457   6.868   1.698  1.0893  1.3890  2.0542
  471EMI    C1' 8939   5.524   6.457   1.875  0.4543  0.7969  0.2211
  471EMI    H1' 8940   5.562   6.492   1.968  2.5172 -1.8522  1.1288
  471EMI    H1' 8941   5.426   6.427   1.903 -1.7466  1.5563 -1.9306
  471EMI    H1' 8942   5.587   6.373   1.846  0.1591  1.3308  3.8410
  471EMI    C1" 8943   5.467   6.714   1.451 -0.0170 -0.5373  0.2677
  471EMI    H1" 8944   5.547   6.699   1.385 -0.4830  2.5995  0.0591
  471EMI    H1" 8945   5.458   6.824   1.440 -1.4104 -1.6968  1.6301
  471EMI    C2" 8946   5.333   6.648   1.407 -0.0797  0.8472  0.3114
  471EMI    H2" 8947   5.325   6.673   1.302 -1.2541  1.0067 -0.8745
  471EMI    H2" 8948   5.332   6.542   1.415 -1.2916  0.5016  2.3182
  471EMI    H2" 8949   5.259   6.686   1.488 -1.3205  0.2714 -0.3126
  472EMI     N1 8950   4.448   1.858   3.634 -0.7002  0.9616 -0.1216
  472EMI     C2 8951   4.565   1.817   3.684 -0.1249  0.2615  0.1679
  472EMI     N3 8952   4.639   1.758   3.587 -0.0894 -0.1880  0.5156
  472EMI     C4 8953   4.572   1.773   3.473 -0.5150  0.4931  0.3820
  472EMI     C5 8954   4.459   1.833   3.503  0.1904 -0.5784 -0.3246
  472EMI     H2 8955   4.592   1.837   3.786 -0.2756 -0.7561 -2.5073
  472EMI     H4 8956   4.598   1.746   3.377 -0.3914 -0.1109  0.5163
  472EMI     H5 8957   4.394   1.874   3.422 -1.7742  0.1468  0.4560
  472EMI    C1' 8958   4.763   1.684   3.595  0.2198 -0.2234  0.1201
  472EMI    H1' 8959   4.807   1.692   3.693 -1.0389  0.1051 -0.2891
  472EMI    H1' 8960   4.745   1.579   3.575  1.7600 -0.2838  0.1347
  472EMI    H1' 8961   4.828   1.725   3.525  0.3185  0.3621  0.0835
  472EMI    C1" 8962   4.338   1.937   3.700  0.1654  0.0465 -0.6513
  472EMI    H1" 8963   4.321   2.035   3.646  0.1731 -1.8844  0.5594
  472EMI    H1" 8964   4.362   1.965   3.803 -1.1724  0.5047  1.5892
  472EMI    C2" 8965   4.215   1.844   3.714 -0.5774  0.2204  0.3552
  472EMI    H2" 8966   4.216   1.770   3.627  0.7904 -0.5409  0.1160
  472EMI    H2" 8967   4.214   1.777   3.801 -0.1809 -3.5357  2.7855
  472EMI    H2" 8968   4.112   1.896   3.715 -1.2107  1.4039  0.4893
  473EMI     N1 8969   3.128   2.262   5.221  0.6933  0.8122 -0.8186
  473EMI     C2 8970   3.169   2.276   5.095 -0.2352  0.4391 -0.2003
  473EMI     N3 8971   3.296   2.314   5.088  0.0544 -0.1171  0.0831
  473EMI     C4 8972   3.340   2.342   5.217 -0.2855  0.6551  0.5841
  473EMI     C5 8973   3.241   2.304   5.302 -0.1601 -0.2688 -0.0461
  473EMI     H2 8974   3.110   2.248   5.007 -0.1115  1.2352  1.0093
  473EMI     H4 8975   3.438   2.380   5.236 -1.0160  0.0031 -1.7090
  473EMI     H5 8976   3.248   2.307   5.412  0.5397  0.8774  0.7113
  473EMI    C1' 8977   3.377   2.355   4.972 -1.0133  0.9130  0.4457
  473EMI    H1' 8978   3.324   2.345   4.883  0.5787  1.5022  2.2737
  473EMI    H1' 8979   3.400   2.457   4.976 -0.5315  1.2934  1.7926
  473EMI    H1' 8980   3.474   2.300   4.961 -1.3425  0.7197 -2.5687
  473EMI    C1" 8981   3.008   2.189   5.270  0.8435 -0.1712 -0.0768
  473EMI    H1" 8982   2.924   2.194   5.208 -1.6775  2.0487  2.4747
  473EMI    H1" 8983   2.979   2.244   5.364 -1.8106 -2.8035  2.3373
  473EMI    C2" 8984   3.050   2.047   5.302  0.3345 -0.0548  0.2341
  473EMI    H2" 8985   2.961   2.002   5.341 -0.5737  0.9615 -1.1662
  473EMI    H2" 8986   3.079   2.002   5.210 -1.1314  0.0480  1.3443
  473EMI    H2" 8987   3.142   2.046   5.359  1.1025 -0.6476 -0.0847
  474EMI     N1 8988   5.273   1.657   4.248 -0.2837  0.2009 -0.2528
  474EMI     C2 8989   5.388   1.632   4.311  0.3636  0.0717 -0.7970
  474EMI     N3 8990   5.403   1.496   4.317  0.0496 -0.7638  0.8599
  474EMI     C4 8991   5.298   1.437   4.258  0.0907 -0.0036 -0.2601
  474EMI     C5 8992   5.216   1.538   4.222  0.1950  0.2874  0.6284
  474EMI     H2 8993   5.459   1.703   4.345  0.6379  1.5870  0.5624
  474EMI     H4 8994   5.271   1.328   4.264 -0.0869 -0.8165 -1.5380
  474EMI     H5 8995   5.111   1.533   4.191 -2.2910 -1.3358 -0.4915
  474EMI    C1' 8996   5.505   1.411   4.377  0.0944 -0.3450  0.0176
  474EMI    H1' 8997   5.607   1.450   4.375 -2.1195  0.1165 -1.0375
  474EMI    H1' 8998   5.488   1.396   4.486 -0.0106  0.4424 -0.9660
  474EMI    H1' 8999   5.497   1.307   4.339  2.9627 -0.6524 -1.8346
  474EMI    C1" 9000   5.201   1.784   4.227 -0.3916 -0.1946 -0.3960
  474EMI    H1" 9001   5.215   1.847   4.319 -0.4150  1.8382 -1.2337
  474EMI    H1" 9002   5.097   1.759   4.212  3.9559 -2.3395  1.2289
  474EMI    C2" 9003   5.259   1.858   4.101 -0.2598 -0.5492  0.7198
  474EMI    H2" 9004   5.368   1.864   4.120  0.0697  3.6348 -0.3123
  474EMI    H2" 9005   5.224   1.812   4.007 -1.3043  0.7867 -0.4575
  474EMI    H2" 9006   5.231   1.961   4.100 -2.4049  1.3762 -2.7464
  475EMI     N1 9007   1.406   1.400   4.864 -0.7744  0.0478 -0.1811
  475EMI     C2 9008   1.486   1.493   4.807  0.3340  0.0560 -0.0322
  475EMI     N3 9009   1.430   1.613   4.833 -0.5163  0.0420  0.1100
  475EMI     C4 9010   1.316   1.597   4.907 -0.2997  0.5853  0.3828
  475EMI     C5 9011   1.301   1.464   4.929 -0.7176  0.0365 -0.7220
  475EMI     H2 9012   1.580   1.479   4.756  0.4770  0.8631  0.4072
  475EMI     H4 9013   1.254   1.678   4.943  0.7592 -2.3897 -0.4379
  475EMI     H5 9014   1.232   1.418   5.003 -4.0737  2.2874 -0.4022
  475EMI    C1' 9015   1.486   1.743   4.796  0.2923  0.6690  0.2692
  475EMI    H1' 9016   1.596   1.737   4.767 -0.1372  1.1925 -2.0421
  475EMI    H1' 9017   1.423   1.782   4.719  4.8111  0.9028  3.5995
  475EMI    H1' 9018   1.462   1.810   4.872 -0.7479 -0.8664 -1.1244
  475EMI    C1" 9019   1.409   1.255   4.848  0.3034 -0.8499  0.1120
  475EMI    H1" 9020   1.344   1.213   4.919 -1.6444  0.4172 -1.0730
  475EMI    H1" 9021   1.508   1.223   4.860  0.3587 -1.6543  0.4162
  475EMI    C2" 9022   1.362   1.227   4.707 -0.4626  0.1708  0.0939
  475EMI    H2" 9023   1.311   1.317   4.672  1.6777 -1.8610 -0.4154
  475EMI    H2" 9024   1.451   1.217   4.648 -2.1282 -0.1921 -2.6305
  475EMI    H2" 9025   1.289   1.148   4.704 -1.2511 -0.1443  0.3117
  476EMI     N1 9026   0.241   0.408   2.417  0.1711  0.5118  0.5999
  476EMI     C2 9027   0.314   0.451   2.521  0.3913  0.1609 -0.0182
  476EMI     N3 9028   0.427   0.506   2.475 -0.4767  0.6519 -0.3660
  476EMI     C4 9029   0.429   0.491   2.336  0.3844  0.6034 -0.5374
  476EMI     C5 9030   0.312   0.424   2.302 -0.2608 -0.2482 -0.8172
  476EMI     H2 9031   0.284   0.447   2.628 -1.3434 -0.4066  0.5411
  476EMI     H4 9032   0.496   0.533   2.260  0.2332 -3.1203 -2.9778
  476EMI     H5 9033   0.282   0.402   2.200  1.1515  3.0581 -1.0090
  476EMI    C1' 9034   0.518   0.602   2.536 -0.4442 -0.1645 -1.3025
  476EMI    H1' 9035   0.526   0.564   2.645  1.1645  1.8346  2.0070
  476EMI    H1' 9036   0.621   0.608   2.485 -1.4178  1.0660 -2.8907
  476EMI    H1' 9037   0.467   0.697   2.539  0.0680  0.3206 -0.4288
  476EMI    C1" 9038   0.105   0.357   2.429 -0.0083 -0.4717 -0.1728
  476EMI    H1" 9039   0.103   0.257   2.477  0.6130 -0.6279 -1.4319
  476EMI    H1" 9040   0.072   0.341   2.327  2.2613 -0.0639  1.1193
  476EMI    C2" 9041   0.001   0.456   2.488  0.0194 -0.0240  0.7417
  476EMI    H2" 9042  -0.090   0.407   2.499  0.1437 -0.1585  2.2860
  476EMI    H2" 9043   0.041   0.496   2.584  1.7573  0.3960  1.1299
  476EMI    H2" 9044  -0.034   0.543   2.428 -1.5954  1.0307  1.4641
  477EMI     N1 9045   3.753   5.289   0.195  0.0681  0.3378  0.6653
  477EMI     C2 9046   3.813   5.338   0.309 -0.4874  0.2744  0.1623
  477EMI     N3 9047   3.905   5.427   0.268  0.4127 -0.1245 -0.0525
  477EMI     C4 9048   3.895   5.443   0.131 -0.5709  0.4031  0.0591
  477EMI     C5 9049   3.803   5.360   0.084 -0.4063  0.4545  0.1997
  477EMI     H2 9050   3.813   5.303   0.407 -2.5093  1.2307 -0.5132
  477EMI     H4 9051   3.965   5.506   0.074  2.0257  2.5064 -2.4207
  477EMI     H5 9052   3.781   5.342  -0.025 -2.0546 -0.5421  0.0344
  477EMI    C1' 9053   4.011   5.484   0.349 -0.4330  0.8209 -0.6606
  477EMI    H1' 9054   3.979   5.466   0.457 -2.8647  0.6396  1.5693
  477EMI    H1' 9055   4.116   5.445   0.327  0.3725 -0.5273  0.3440
  477EMI    H1' 9056   4.022   5.591   0.338 -0.3689  0.1046  0.7646
  477EMI    C1" 9057   3.643   5.193   0.185 -0.2844 -0.2470  0.5586
  477EMI    H1" 9058   3.684   5.089   0.196 -2.4625 -1.5381  0.4242
  477EMI    H1" 9059   3.596   5.216   0.091 -1.0179 -3.2395 -1.9501
  477EMI    C2" 9060   3.540   5.204   0.286 -0.3174 -0.0284 -0.5942
  477EMI    H2" 9061   3.461   5.128   0.264  0.2853 -0.3146 -0.7063
  477EMI    H2" 9062   3.568   5.179   0.384  0.4101  0.4832  1.2559
  477EMI    H2" 9063   3.501   5.304   0.281  0.2488 -1.9668 -0.1485
  478EMI     N1 9064   5.458   3.195   1.195  0.3555  0.2486 -0.4853
  478EMI     C2 9065   5.580   3.133   1.169  0.4924  0.4361  0.5947
  478EMI     N3 9066   5.667   3.166   1.261  0.7613 -0.7214  0.1815
  478EMI     C4 9067   5.604   3.261   1.348  0.1861  0.5135  0.0999
  478EMI     C5 9068   5.480   3.279   1.304  0.0043 -0.0885 -0.5493
  478EMI     H2 9069   5.593   3.065   1.092  2.2863  0.6143 -0.4229
  478EMI     H4 9070   5.646   3.308   1.441  1.2634  0.8729  0.2398
  478EMI     H5 9071   5.408   3.341   1.353 -0.3759 -3.2784 -1.8077
  478EMI    C1' 9072   5.803   3.130   1.307  0.3353  0.8355  0.0575
  478EMI    H1' 9073   5.869   3.109   1.223  1.0684 -3.5528  1.9942
  478EMI    H1' 9074   5.842   3.203   1.370  0.4922  1.8535 -1.1105
  478EMI    H1' 9075   5.787   3.039   1.359 -1.1492  0.6979  2.4861
  478EMI    C1" 9076   5.329   3.184   1.128 -0.2875  0.3985  0.3337
  478EMI    H1" 9077   5.269   3.265   1.177  2.6532 -1.3103  0.9970
  478EMI    H1" 9078   5.290   3.084   1.144 -0.5416 -1.9573  0.1751
  478EMI    C2" 9079   5.335   3.212   0.977 -0.0850 -0.1821  0.1080
  478EMI    H2" 9080   5.365   3.133   0.912 -1.2686  2.2160 -0.3637
  478EMI    H2" 9081   5.237   3.249   0.943  1.4638  1.1368 -1.7346
  478EMI    H2" 9082   5.406   3.293   0.952  1.1588 -0.7526 -0.3176
  479EMI     N1 9083   2.409   2.054   0.617  0.2872 -0.6195 -0.2267
  479EMI     C2 9084   2.488   2.159   0.639  1.0169 -0.1596  0.8603
  479EMI     N3 9085   2.490   2.185   0.776 -0.3063 -0.3060 -0.5054
  479EMI     C4 9086   2.420   2.086   0.836  0.8720  0.3761 -0.2488
  479EMI     C5 9087   2.368   2.007   0.741 -0.0561 -0.3439  0.7254
  479EMI     H2 9088   2.519   2.220   0.559 -3.1688 -1.0570  0.9926
  479EMI     H4 9089   2.406   2.085   0.940  0.8540 -0.8813  1.1815
  479EMI     H5 9090   2.298   1.932   0.755 -1.5339 -0.4782 -0.9128
  479EMI    C1' 9091   2.559   2.285   0.868  0.1376 -0.5314 -0.1145
  479EMI    H1' 9092   2.660   2.281   0.864  0.9850  1.0325 -0.1660
  479EMI    H1' 9093   2.526   2.380   0.838  1.4814  0.8969 -0.3643
  479EMI    H1' 9094   2.530   2.267   0.970 -0.0977 -1.7038 -1.4981
  479EMI    C1" 9095   2.366   1.990   0.484 -0.1435 -0.0667 -0.0969
  479EMI    H1" 9096   2.299   2.066   0.437  0.7686  0.4938  2.5945
  479EMI    H1" 9097   2.309   1.900   0.506  0.9035  2.1059  1.4976
  479EMI    C2" 9098   2.483   1.959   0.392 -0.0551 -0.0188 -0.4577
  479EMI    H2" 9099   2.452   1.928   0.287 -0.0976 -0.4946 -0.9259
  479EMI    H2" 9100   2.545   2.044   0.389 -1.8784  0.8866 -0.7405
  479EMI    H2" 9101   2.537   1.873   0.438  0.7733 -0.0170  0.4811
  480EMI     N1 9102   0.788   2.200   0.328  0.0809 -0.1435 -0.9337
  480EMI     C2 9103   0.776   2.080   0.270 -0.1835 -0.2179  0.8064
  480EMI     N3 9104   0.663   2.070   0.201 -0.2849 -0.1292  0.1697
  480EMI     C4 9105   0.594   2.191   0.212  0.3369 -0.7211 -0.3958
  480EMI     C5 9106   0.671   2.273   0.292  0.2877  0.4313  0.0170
  480EMI     H2 9107   0.859   2.006   0.278  1.6626 -2.6069 -1.7246
  480EMI     H4 9108   0.494   2.209   0.170  1.5466  0.2687 -0.5374
  480EMI     H5 9109   0.643   2.374   0.318 -0.3293 -0.2818 -3.4932
  480EMI    C1' 9110   0.626   1.955   0.118 -0.5758 -0.5774 -0.7398
  480EMI    H1' 9111   0.557   1.977   0.043 -0.5815 -1.8317 -1.5496
  480EMI    H1' 9112   0.716   1.929   0.064  0.9147  0.0685 -0.4244
  480EMI    H1' 9113   0.593   1.872   0.178  1.2761 -0.0220 -2.9024
  480EMI    C1" 9114   0.901   2.261   0.409  0.4806 -0.6269  0.2041
  480EMI    H1" 9115   0.919   2.188   0.488 -0.8624 -0.4941  1.1485
  480EMI    H1" 9116   0.872   2.358   0.452  1.0839  0.0772  0.8167
  480EMI    C2" 9117   1.024   2.283   0.322  0.4424 -0.0282  0.0178
  480EMI    H2" 9118   1.077   2.191   0.294  1.7485  0.2171  0.3801
  480EMI    H2" 9119   1.012   2.346   0.233  2.4171  0.3906  1.0759
  480EMI    H2" 9120   1.098   2.342   0.376  0.9374 -0.5255 -3.0396
  481EMI     N1 9121   6.741   0.709   4.426  0.1627 -0.3623 -0.7488
  481EMI     C2 9122   6.694   0.690   4.304 -0.1854 -0.6937  0.4138
  481EMI     N3 9123   6.689   0.804   4.235  0.1177 -0.3769 -0.2136
  481EMI     C4 9124   6.728   0.903   4.327  0.1004  0.4006 -0.1983
  481EMI     C5 9125   6.772   0.838   4.438 -0.1269 -0.0225  0.2311
  481EMI     H2 9126   6.659   0.597   4.257 -2.0742 -2.4922  1.8784
  481EMI     H4 9127   6.739   1.009   4.309 -0.2578 -1.0379 -0.4788
  481EMI     H5 9128   6.813   0.881   4.529  1.0991  0.8056  1.0091
  481EMI    C1' 9129   6.643   0.840   4.102 -0.0241  0.2444  0.3554
  481EMI    H1' 9130   6.720   0.790   4.035 -0.5059  0.1411  2.8938
  481EMI    H1' 9131   6.535   0.806   4.084  0.0148 -0.8359  2.6507
  481EMI    H1' 9132   6.641   0.945   4.087 -3.2192  1.3933  0.4367
  481EMI    C1" 9133   6.772   0.615   4.536  0.3960  0.4761  0.0119
  481EMI    H1" 9134   6.690   0.617   4.600  0.5750  1.0855 -2.6307
  481EMI    H1" 9135   6.859   0.650   4.587 -0.1300  0.9730  0.2644
  481EMI    C2" 9136   6.795   0.474   4.492 -0.2041  0.3139  0.0785
  481EMI    H2" 9137   6.816   0.411   4.569 -1.7008  1.9792  0.2611
  481EMI    H2" 9138   6.702   0.436   4.450 -1.1857  2.8537  1.8653
  481EMI    H2" 9139   6.880   0.471   4.417  3.7598  1.3290 -0.7783
  482EMI     N1 9140   4.269   4.273   1.983 -0.8238  0.2613 -0.5432
  482EMI     C2 9141   4.400   4.241   1.962 -0.2188 -1.1950  0.4523
  482EMI     N3 9142   4.423   4.238   1.830 -0.2028 -0.4668 -0.2397
  482EMI     C4 9143   4.315   4.283   1.764  0.4198 -0.2315 -0.5656
  482EMI     C5 9144   4.221   4.304   1.859 -0.5645 -0.1771  0.0154
  482EMI     H2 9145   4.474   4.203   2.031  1.3138  0.5694 -1.5363
  482EMI     H4 9146   4.303   4.282   1.660  1.7882  1.3431  1.3855
  482EMI     H5 9147   4.115   4.341   1.854 -4.9750 -1.5610  0.8272
  482EMI    C1' 9148   4.554   4.223   1.765 -0.0873  0.0441  0.0478
  482EMI    H1' 9149   4.625   4.281   1.825 -1.2964  0.9020 -0.0801
  482EMI    H1' 9150   4.583   4.118   1.789 -1.1358 -0.6804 -0.4408
  482EMI    H1' 9151   4.563   4.241   1.658 -2.9956 -0.4379  0.9743
  482EMI    C1" 9152   4.175   4.270   2.098 -0.8615 -0.0227  0.8844
  482EMI    H1" 9153   4.190   4.181   2.156 -2.7067 -1.1631  2.0734
  482EMI    H1" 9154   4.079   4.282   2.053  0.0877  3.2440 -0.7874
  482EMI    C2" 9155   4.208   4.390   2.185 -0.1689  0.3357 -0.3684
  482EMI    H2" 9156   4.292   4.354   2.242  0.0138 -0.1465 -1.2142
  482EMI    H2" 9157   4.250   4.465   2.124  0.1062 -0.9931  0.0713
  482EMI    H2" 9158   4.126   4.425   2.244 -1.0745 -2.7309  1.2551
  483EMI     N1 9159   4.337   1.233   3.293  1.1936  0.4852  0.2121
  483EMI     C2 9160   4.368   1.132   3.374 -0.2560 -0.7106 -0.4678
  483EMI     N3 9161   4.343   1.165   3.501  0.4643  0.4096  0.2118
  483EMI     C4 9162   4.288   1.294   3.505 -0.1317 -0.1155 -0.1045
  483EMI     C5 9163   4.294   1.334   3.378  0.8759  0.8138  0.2070
  483EMI     H2 9164   4.418   1.044   3.340 -1.2438 -0.7335  2.3342
  483EMI     H4 9165   4.247   1.349   3.588 -0.6663 -4.3251  1.5554
  483EMI     H5 9166   4.261   1.436   3.343 -1.8168  2.9794 -0.2989
  483EMI    C1' 9167   4.354   1.074   3.620 -0.1037 -0.0083 -0.0509
  483EMI    H1' 9168   4.266   1.012   3.636  1.1094 -0.9304  1.0869
  483EMI    H1' 9169   4.443   1.016   3.618 -1.4742  3.3418  3.6655
  483EMI    H1' 9170   4.365   1.142   3.703  0.7254  0.0661 -3.8170
  483EMI    C1" 9171   4.351   1.252   3.148 -0.8953 -0.8484  0.8075
  483EMI    H1" 9172   4.451   1.218   3.125  2.1048 -0.0572  1.3861
  483EMI    H1" 9173   4.346   1.355   3.130 -0.1652 -1.0707  1.3486
  483EMI    C2" 9174   4.238   1.184   3.072  0.0860  0.1129  0.3645
  483EMI    H2" 9175   4.143   1.206   3.125 -1.8643 -1.9018 -0.3805
  483EMI    H2" 9176   4.227   1.237   2.976  1.5948  2.9528 -1.9450
  483EMI    H2" 9177   4.273   1.078   3.072 -0.7258 -0.0347 -0.6239
  484EMI     N1 9178   5.330   4.416   2.257 -0.1698 -0.0560  0.2590
  484EMI     C2 9179   5.204   4.462   2.226  0.1300  0.0126 -0.3037
  484EMI     N3 9180   5.216   4.552   2.131 -0.4725  0.2553 -0.2642
  484EMI     C4 9181   5.354   4.566   2.103 -0.0691  0.1414  0.4305
  484EMI     C5 9182   5.423   4.476   2.170 -0.0447  0.2857  0.5195
  484EMI     H2 9183   5.111   4.427   2.274  3.1161  0.2941  1.0729
  484EMI     H4 9184   5.399   4.625   2.025 -2.1678 -0.1516 -0.5992
  484EMI     H5 9185   5.525   4.446   2.162 -0.9467  0.1493 -0.2945
  484EMI    C1' 9186   5.106   4.625   2.060 -0.5486 -0.2045  0.6395
  484EMI    H1' 9187   5.021   4.659   2.120  1.9583 -0.7475 -0.4985
  484EMI    H1' 9188   5.149   4.714   2.029 -1.6625  0.6947  1.2952
  484EMI    H1' 9189   5.062   4.572   1.981  0.2292  0.0735  0.6927
  484EMI    C1" 9190   5.373   4.303   2.341  0.2128 -0.4050  0.5103
  484EMI    H1" 9191   5.340   4.323   2.445  0.5779 -0.4747  1.8413
  484EMI    H1" 9192   5.477   4.307   2.329 -0.7016 -0.4107 -0.0729
  484EMI    C2" 9193   5.326   4.171   2.285  0.2129 -0.6209  0.3272
  484EMI    H2" 9194   5.213   4.165   2.284 -1.5683 -1.5698 -2.4015
  484EMI    H2" 9195   5.354   4.158   2.180 -0.1549  0.2684 -1.3983
  484EMI    H2" 9196   5.360   4.096   2.359  0.6166  0.8838  2.9367
  485EMI     N1 9197   6.810   0.523   1.771 -0.9650  0.2833  0.1358
  485EMI     C2 9198   6.905   0.492   1.679 -0.0710 -0.4733 -0.1563
  485EMI     N3 9199   6.839   0.439   1.579  0.1387 -0.0203 -0.2154
  485EMI     C4 9200   6.710   0.418   1.611 -0.2799  0.5003  0.7746
  485EMI     C5 9201   6.689   0.480   1.728 -0.4125  0.6363  0.0321
  485EMI     H2 9202   7.006   0.527   1.671  1.4911  1.2847  1.0540
  485EMI     H4 9203   6.639   0.371   1.538 -0.3173 -3.2393 -0.4010
  485EMI     H5 9204   6.586   0.492   1.774 -0.4883  3.1953  0.2555
  485EMI    C1' 9205   6.893   0.418   1.447  0.3433 -0.3989 -0.3532
  485EMI    H1' 9206   6.981   0.469   1.431  1.1509 -0.5699 -2.1420
  485EMI    H1' 9207   6.914   0.316   1.438  1.1440 -1.5039  0.0560
  485EMI    H1' 9208   6.825   0.461   1.376 -1.2283 -0.8216  2.2162
  485EMI    C1" 9209   6.819   0.588   1.907 -0.0082 -0.2006  0.4228
  485EMI    H1" 9210   6.723   0.584   1.961 -1.0699  0.2275  1.5044
  485EMI    H1" 9211   6.852   0.693   1.885  2.2668  2.5452 -1.8160
  485EMI    C2" 9212   6.929   0.527   1.992  0.0972 -0.1387 -0.4481
  485EMI    H2" 9213   6.959   0.585   2.078  2.9846  4.2585 -3.2345
  485EMI    H2" 9214   6.904   0.425   2.008  3.2539  2.4159 -1.2700
  485EMI    H2" 9215   7.018   0.521   1.936 -2.8444  0.9475  1.2945
  486EMI     N1 9216   6.658   6.515   2.021 -0.2029 -0.2780 -0.4690
  486EMI     C2 9217   6.593   6.622   2.071  0.0666  0.0056  0.1002
  486EMI     N3 9218   6.678   6.719   2.112  0.4002  0.2726  0.4508
  486EMI     C4 9219   6.799   6.669   2.088  0.0418  0.1966 -0.4635
  486EMI     C5 9220   6.793   6.543   2.043 -0.2953  0.1960 -0.1085
  486EMI     H2 9221   6.493   6.635   2.075  4.8251  1.2264  2.9521
  486EMI     H4 9222   6.889   6.718   2.116 -2.1842 -1.5285  0.1645
  486EMI     H5 9223   6.888   6.493   2.024  0.3782  2.4752 -2.8531
  486EMI    C1' 9224   6.659   6.851   2.164  0.0994  0.1312  0.2158
  486EMI    H1' 9225   6.555   6.875   2.156 -1.5952  0.5108  1.9608
  486EMI    H1' 9226   6.685   6.850   2.271 -0.0715 -3.0069  0.2965
  486EMI    H1' 9227   6.718   6.922   2.116 -0.6238 -0.4049 -0.4948
  486EMI    C1" 9228   6.607   6.396   1.950 -0.2040 -0.5943  0.5485
  486EMI    H1" 9229   6.691   6.334   1.902 -0.1118 -0.8568 -2.9598
  486EMI    H1" 9230   6.535   6.429   1.875  0.4235 -1.3763  2.2810
  486EMI    C2" 9231   6.517   6.315   2.039  0.2274 -0.0605  0.0140
  486EMI    H2" 9232   6.438   6.376   2.075 -1.1429  0.9259 -1.7569
  486EMI    H2" 9233   6.471   6.240   1.971 -1.1850 -2.3217 -0.5480
  486EMI    H2" 9234   6.574   6.272   2.114  0.6805  2.4180 -3.5533
  487EMI     N1 9235   3.751   4.341   1.057 -0.1459 -0.1294 -0.4176
  487EMI     C2 9236   3.747   4.286   1.183 -0.2660  0.1058  0.7042
  487EMI     N3 9237   3.874   4.281   1.232  0.2109  0.3080 -0.1949
  487EMI     C4 9238   3.956   4.334   1.130 -0.4427  0.4332  0.1757
  487EMI     C5 9239   3.882   4.375   1.026  0.5467 -0.5312 -0.4191
  487EMI     H2 9240   3.664   4.258   1.245  1.8884 -2.2136  0.4467
  487EMI     H4 9241   4.065   4.339   1.130  1.5271  0.9445 -0.9809
  487EMI     H5 9242   3.914   4.408   0.930 -3.8441  0.1607 -1.5505
  487EMI    C1' 9243   3.921   4.216   1.358 -0.2305 -0.2983  0.5036
  487EMI    H1' 9244   3.841   4.205   1.422 -1.1475  1.5075 -1.6116
  487EMI    H1' 9245   3.965   4.116   1.338  1.9407  1.6729  0.0245
  487EMI    H1' 9246   3.992   4.285   1.406 -0.1390 -1.6810  2.3973
  487EMI    C1" 9247   3.642   4.368   0.959  0.8399  0.1905 -0.1988
  487EMI    H1" 9248   3.605   4.268   0.932  0.3456  0.9578  0.1603
  487EMI    H1" 9249   3.688   4.414   0.871  0.3006  1.6837 -0.3850
  487EMI    C2" 9250   3.535   4.466   1.014 -0.7285  0.2834 -0.1187
  487EMI    H2" 9251   3.457   4.477   0.948 -1.5884 -0.9999  1.4592
  487EMI    H2" 9252   3.494   4.429   1.106 -0.4156 -2.7657  1.7375
  487EMI    H2" 9253   3.564   4.566   1.038  0.1739  1.0140  0.8181
  488EMI     N1 9254   1.615   2.112   2.644  0.8154  0.0527  0.3160
  488EMI     C2 9255   1.723   2.189   2.645 -0.0235  0.2523 -0.1515
  488EMI     N3 9256   1.731   2.270   2.537 -0.0916  0.1068 -0.7253
  488EMI     C4 9257   1.621   2.239   2.464 -0.4295 -0.6218 -0.2078
  488EMI     C5 9258   1.552   2.141   2.527 -0.0820 -0.8839 -0.0668
  488EMI     H2 9259   1.790   2.186   2.737 -0.0020 -0.3859 -0.5271
  488EMI     H4 9260   1.586   2.276   2.373 -1.0521  0.2432  1.6622
  488EMI     H5 9261   1.453   2.094   2.490  1.0714  1.5645  2.0005
  488EMI    C1' 9262   1.826   2.365   2.489  0.3474 -0.3063 -0.0367
  488EMI    H1' 9263   1.923   2.341   2.526 -2.7495  1.9720 -1.8268
  488EMI    H1' 9264   1.822   2.354   2.379  1.3062  0.2835 -1.7556
  488EMI    H1' 9265   1.802   2.473   2.516  0.6232 -3.1853 -3.6435
  488EMI    C1" 9266   1.567   2.004   2.733 -0.1982  0.6546 -0.8512
  488EMI    H1" 9267   1.514   1.923   2.673  1.4017 -2.0466  1.5388
  488EMI    H1" 9268   1.488   2.038   2.799 -1.2568 -0.0936  3.1523
  488EMI    C2" 9269   1.685   1.947   2.816  0.5025  0.4886  0.1399
  488EMI    H2" 9270   1.736   2.031   2.864 -0.5475 -0.5246  1.3215
  488EMI    H2" 9271   1.648   1.883   2.890  0.6059  0.2553  1.0629
  488EMI    H2" 9272   1.746   1.883   2.756 -3.5907 -1.2089  0.9486
  489EMI     N1 9273   4.478   6.658   1.613  0.2731 -0.3540  0.3492
  489EMI     C2 9274   4.363   6.667   1.541  0.0965  0.4699  0.3041
  489EMI     N3 9275   4.354   6.567   1.450  0.0547  0.2835 -0.0668
  489EMI     C4 9276   4.474   6.506   1.447  0.2134  1.0437  0.1154
  489EMI     C5 9277   4.552   6.553   1.551  0.5139 -0.5211 -0.0459
  489EMI     H2 9278   4.284   6.738   1.564  1.5753  1.0636 -0.9755
  489EMI     H4 9279   4.505   6.432   1.366 -1.7713 -3.5789 -0.6924
  489EMI     H5 9280   4.659   6.527   1.565  2.2991 -0.1128 -0.7401
  489EMI    C1' 9281   4.244   6.530   1.367  0.2034  0.1131  0.3235
  489EMI    H1' 9282   4.162   6.494   1.424 -0.0591  2.8219 -2.3056
  489EMI    H1' 9283   4.207   6.617   1.317 -0.1201 -1.2872  2.8818
  489EMI    H1' 9284   4.262   6.458   1.285 -0.5109 -1.2723 -1.9191
  489EMI    C1" 9285   4.523   6.736   1.730  0.8946  0.2722  0.3656
  489EMI    H1" 9286   4.478   6.844   1.724  0.0242 -0.9164 -2.0409
  489EMI    H1" 9287   4.630   6.753   1.725  1.3408  0.6400 -3.4403
  489EMI    C2" 9288   4.475   6.662   1.855 -0.1167  0.0040 -0.3184
  489EMI    H2" 9289   4.503   6.714   1.942  0.8942  0.4043  0.2898
  489EMI    H2" 9290   4.374   6.643   1.849  1.6511  0.7510 -2.1332
  489EMI    H2" 9291   4.527   6.568   1.862 -0.4928  0.9213  0.1003
  490EMI     N1 9292   1.262   5.257   3.111 -0.0587 -0.2061 -0.6583
  490EMI     C2 9293   1.276   5.204   3.235 -0.4595  0.7773  0.4963
  490EMI     N3 9294   1.356   5.100   3.232  0.1033  0.2185  0.8174
  490EMI     C4 9295   1.409   5.094   3.102  0.3097 -0.0720  0.5439
  490EMI     C5 9296   1.343   5.182   3.032  0.1032 -0.3289  0.1012
  490EMI     H2 9297   1.233   5.234   3.325  1.1761 -0.4833  1.0999
  490EMI     H4 9298   1.476   5.020   3.061  1.4562 -0.2043 -2.2079
  490EMI     H5 9299   1.353   5.204   2.930  0.3319  0.1261 -1.3159
  490EMI    C1' 9300   1.393   5.000   3.341 -0.2647  0.2552 -0.5621
  490EMI    H1' 9301   1.480   4.940   3.317  1.3678 -2.8869 -0.8755
  490EMI    H1' 9302   1.409   5.053   3.434  0.7126 -1.8108  0.8354
  490EMI    H1' 9303   1.311   4.929   3.358 -2.7728 -2.2192 -2.3012
  490EMI    C1" 9304   1.181   5.374   3.050  0.2854  0.3220  0.4186
  490EMI    H1" 9305   1.092   5.377   3.106 -0.7496  1.2157  0.2541
  490EMI    H1" 9306   1.152   5.355   2.946  0.3137 -0.1738  0.4737
  490EMI    C2" 9307   1.256   5.505   3.056 -0.2647  0.4323  0.5512
  490EMI    H2" 9308   1.262   5.546   3.159 -0.6918  1.8470  0.1189
  490EMI    H2" 9309   1.360   5.497   3.020 -2.0795  3.3771  1.7480
  490EMI    H2" 9310   1.205   5.584   3.003  2.4218 -0.0401 -1.9198
  491EMI     N1 9311   0.563   5.585   6.725 -0.6200  0.0660  0.4317
  491EMI     C2 9312   0.697   5.597   6.736 -0.2345 -0.3976 -0.0688
  491EMI     N3 9313   0.738   5.711   6.683  0.0225 -1.0375 -0.4127
  491EMI     C4 9314   0.627   5.784   6.637  0.1283  0.6270 -0.2861
  491EMI     C5 9315   0.518   5.701   6.662 -0.5780  0.4111  0.5234
  491EMI     H2 9316   0.751   5.520   6.782  1.0178 -0.8068  0.7554
  491EMI     H4 9317   0.634   5.878   6.585  1.1901 -0.1902  1.4523
  491EMI     H5 9318   0.414   5.719   6.634 -1.0504 -5.0930  1.7023
  491EMI    C1' 9319   0.870   5.767   6.675  0.8454 -0.0289 -0.0580
  491EMI    H1' 9320   0.946   5.689   6.713  0.1480  0.7739 -1.0995
  491EMI    H1' 9321   0.903   5.794   6.572  0.7953  2.8850  0.0461
  491EMI    H1' 9322   0.880   5.851   6.748  2.4251 -1.5903 -0.0074
  491EMI    C1" 9323   0.479   5.484   6.782  0.7994  0.3265  0.2110
  491EMI    H1" 9324   0.542   5.396   6.797  0.7452 -0.4886 -0.2320
  491EMI    H1" 9325   0.391   5.462   6.724  1.2937  1.0534 -4.8999
  491EMI    C2" 9326   0.450   5.529   6.929  0.1493 -0.1624 -0.5420
  491EMI    H2" 9327   0.541   5.520   6.982  0.5273 -1.3960 -1.7958
  491EMI    H2" 9328   0.405   5.624   6.942  2.0134 -1.0396  1.8550
  491EMI    H2" 9329   0.384   5.452   6.971  0.7668  0.6622 -2.6286
  492EMI     N1 9330   5.792   4.026   2.649  0.1645 -0.3972 -0.0126
  492EMI     C2 9331   5.865   4.137   2.630 -0.4390 -0.4512  0.2441
  492EMI     N3 9332   5.966   4.148   2.718  0.3591  0.0129  0.2120
  492EMI     C4 9333   5.960   4.032   2.789 -0.3074  0.0605  0.3311
  492EMI     C5 9334   5.852   3.957   2.753 -0.2486 -0.3867 -0.0074
  492EMI     H2 9335   5.851   4.212   2.554 -0.7661 -0.4142 -1.8736
  492EMI     H4 9336   6.033   4.000   2.861  1.2576  0.4611  0.3902
  492EMI     H5 9337   5.824   3.857   2.790 -1.5826  0.6951  0.0899
  492EMI    C1' 9338   6.051   4.260   2.762  0.1797 -0.2016  0.3121
  492EMI    H1' 9339   6.131   4.282   2.686 -0.9257 -4.0286  0.5236
  492EMI    H1' 9340   5.988   4.352   2.767 -1.4874 -0.0842  0.7202
  492EMI    H1' 9341   6.105   4.239   2.854 -1.1172  0.4535 -0.3353
  492EMI    C1" 9342   5.691   3.965   2.570  0.7634  0.3604 -0.1576
  492EMI    H1" 9343   5.599   3.970   2.632  0.3127  0.9554  0.8629
  492EMI    H1" 9344   5.716   3.870   2.550 -0.9271 -0.3559 -0.5363
  492EMI    C2" 9345   5.659   4.045   2.442 -0.0726 -0.4569  0.5144
  492EMI    H2" 9346   5.744   4.092   2.407  1.1058 -0.8205 -0.8109
  492EMI    H2" 9347   5.612   3.984   2.360  0.5625  0.9742  1.2385
  492EMI    H2" 9348   5.592   4.129   2.466  1.7576 -0.7783 -1.4938
  493EMI     N1 9349   4.637   2.075   4.603  0.2381 -0.1973  0.0710
  493EMI     C2 9350   4.504   2.095   4.592  0.4275 -0.1643 -0.1182
  493EMI     N3 9351   4.469   2.206   4.520 -0.1037  0.1896  0.2400
  493EMI     C4 9352   4.590   2.264   4.485 -0.3394  0.5301  0.7056
  493EMI     C5 9353   4.687   2.190   4.540 -0.4492  0.0252 -0.4235
  493EMI     H2 9354   4.432   2.021   4.641 -3.5118  1.0541 -2.0251
  493EMI     H4 9355   4.604   2.360   4.431 -1.5127 -0.8970 -0.3971
  493EMI     H5 9356   4.791   2.217   4.544 -1.9419  0.5160  3.6021
  493EMI    C1' 9357   4.338   2.270   4.494 -0.8544 -0.4074 -0.7756
  493EMI    H1' 9358   4.313   2.324   4.587 -3.8613  0.0668  2.5919
  493EMI    H1' 9359   4.345   2.330   4.404  2.2254  1.6275 -4.7239
  493EMI    H1' 9360   4.259   2.189   4.478 -1.0836 -1.6444  0.5808
  493EMI    C1" 9361   4.725   1.984   4.680 -0.1417 -0.5635  0.2771
  493EMI    H1" 9362   4.696   1.983   4.785  0.5600  0.1354  1.7082
  493EMI    H1" 9363   4.825   2.017   4.682 -0.9098 -1.3171 -1.6093
  493EMI    C2" 9364   4.726   1.837   4.648  0.5921  0.2874  0.7321
  493EMI    H2" 9365   4.628   1.796   4.608 -3.7045  0.5964 -1.2479
  493EMI    H2" 9366   4.815   1.814   4.587  3.3367  1.9506  0.0025
  493EMI    H2" 9367   4.738   1.794   4.745 -1.3815  0.1309 -0.9964
  494EMI     N1 9368   4.585   4.699   4.768 -0.4014 -0.0079  0.6271
  494EMI     C2 9369   4.509   4.738   4.868 -0.7248 -0.5310 -0.9124
  494EMI     N3 9370   4.585   4.821   4.941 -0.1724  0.5253 -0.3353
  494EMI     C4 9371   4.702   4.836   4.887 -0.6614 -0.6188 -0.1834
  494EMI     C5 9372   4.707   4.764   4.778  0.0182 -0.9954 -0.3037
  494EMI     H2 9373   4.411   4.701   4.880 -1.6108 -0.3113 -2.3081
  494EMI     H4 9374   4.793   4.888   4.922 -1.9480 -1.0912  1.3823
  494EMI     H5 9375   4.798   4.756   4.713  2.8040  0.7912  0.9836
  494EMI    C1' 9376   4.552   4.873   5.074 -0.1716 -0.6000 -0.3056
  494EMI    H1' 9377   4.447   4.855   5.093 -0.3495 -0.1506 -0.6508
  494EMI    H1' 9378   4.596   4.823   5.156 -2.1021  0.7144 -4.4975
  494EMI    H1' 9379   4.569   4.978   5.085 -1.6320 -0.7967  2.8373
  494EMI    C1" 9380   4.556   4.610   4.649  0.5387 -0.8265  0.1158
  494EMI    H1" 9381   4.609   4.656   4.563  2.0979  1.2344 -0.9105
  494EMI    H1" 9382   4.449   4.608   4.625  0.5349 -2.4274  3.3493
  494EMI    C2" 9383   4.598   4.473   4.689 -0.8718  0.0275  0.2868
  494EMI    H2" 9384   4.536   4.441   4.766 -0.1743  0.1582  1.8047
  494EMI    H2" 9385   4.600   4.408   4.605  1.8876 -0.4956 -2.9769
  494EMI    H2" 9386   4.703   4.470   4.715  0.6681 -0.6275  1.3069
  495EMI     N1 9387   1.253   3.794   3.755 -0.0017 -0.1421 -1.0240
  495EMI     C2 9388   1.307   3.686   3.801 -0.6146  0.1982 -0.4834
  495EMI     N3 9389   1.214   3.613   3.867  0.0742 -0.3115  0.1061
  495EMI     C4 9390   1.096   3.682   3.853  0.5028  0.3951 -0.6578
  495EMI     C5 9391   1.120   3.792   3.779 -0.0502  0.0417 -0.5952
  495EMI     H2 9392   1.413   3.655   3.802  0.5924 -1.2297  0.6978
  495EMI     H4 9393   1.002   3.647   3.890 -1.1316  2.2085 -0.7656
  495EMI     H5 9394   1.043   3.863   3.745 -0.2829  0.5116  2.3688
  495EMI    C1' 9395   1.221   3.475   3.922  0.2234  0.9834 -0.0347
  495EMI    H1' 9396   1.118   3.434   3.926  0.3412 -2.1549  0.3028
  495EMI    H1' 9397   1.269   3.403   3.860 -0.9448 -0.2858 -0.9990
  495EMI    H1' 9398   1.262   3.467   4.026  0.0518 -2.9496 -0.7568
  495EMI    C1" 9399   1.320   3.896   3.671  0.3722 -0.0918 -0.3787
  495EMI    H1" 9400   1.414   3.922   3.718  1.7806  0.9316  1.2979
  495EMI    H1" 9401   1.253   3.978   3.666  2.2246  0.6250  0.8885
  495EMI    C2" 9402   1.340   3.846   3.533 -0.2859 -0.1903 -0.0464
  495EMI    H2" 9403   1.402   3.760   3.529 -0.5417 -2.6192  0.7102
  495EMI    H2" 9404   1.253   3.811   3.490 -3.4322  1.1020  0.1165
  495EMI    H2" 9405   1.381   3.925   3.471 -1.2680 -1.6150 -0.4200
  496EMI     N1 9406   2.585   3.593   1.789  0.6161  0.7203 -0.3522
  496EMI     C2 9407   2.717   3.596   1.817  0.3902 -0.1704 -0.2648
  496EMI     N3 9408   2.734   3.600   1.951 -0.1969  0.0192  0.3038
  496EMI     C4 9409   2.609   3.622   2.002 -0.4969  0.9461 -0.8670
  496EMI     C5 9410   2.516   3.607   1.907 -0.0351  0.2584  0.7550
  496EMI     H2 9411   2.802   3.579   1.757 -1.1163 -0.7852 -0.2116
  496EMI     H4 9412   2.587   3.646   2.103  1.3041 -0.9693  0.3757
  496EMI     H5 9413   2.409   3.619   1.925  1.1515  0.8151  1.3566
  496EMI    C1' 9414   2.846   3.607   2.038 -0.9031 -0.3672  0.0034
  496EMI    H1' 9415   2.890   3.712   2.043 -0.2984  2.1936  2.7176
  496EMI    H1' 9416   2.808   3.578   2.137 -0.2797  0.8091  0.5443
  496EMI    H1' 9417   2.927   3.530   2.018  0.4334  0.8441 -0.2554
  496EMI    C1" 9418   2.519   3.576   1.652 -0.7360  0.3865  0.0332
  496EMI    H1" 9419   2.427   3.517   1.665  0.6468  2.9430 -0.0948
  496EMI    H1" 9420   2.589   3.532   1.584 -0.1480  0.5447 -2.0071
  496EMI    C2" 9421   2.483   3.715   1.603  0.3191 -0.2094 -0.5490
  496EMI    H2" 9422   2.402   3.755   1.661  1.1016  0.1914  0.4712
  496EMI    H2" 9423   2.569   3.777   1.601 -2.2440 -1.7388 -0.5427
  496EMI    H2" 9424   2.426   3.711   1.505 -0.4691  3.1958 -1.7364
  497EMI     N1 9425   3.072   5.802   4.077  0.0463 -0.2482 -0.4370
  497EMI     C2 9426   3.095   5.712   3.982 -0.6739  0.1448 -0.4725
  497EMI     N3 9427   3.176   5.763   3.893 -0.2760 -0.1512  0.1644
  497EMI     C4 9428   3.199   5.891   3.927  0.2528 -0.1023  0.2805
  497EMI     C5 9429   3.136   5.922   4.043 -0.3545  0.0562  0.2174
  497EMI     H2 9430   3.044   5.615   3.968 -0.5743 -1.3777  2.2550
  497EMI     H4 9431   3.252   5.964   3.876 -1.3563 -0.0996 -1.1169
  497EMI     H5 9432   3.126   6.019   4.088  0.5487  2.3837  0.8735
  497EMI    C1' 9433   3.232   5.699   3.773 -0.9235 -0.0683  0.0950
  497EMI    H1' 9434   3.200   5.602   3.772  1.0350 -0.6631  0.6215
  497EMI    H1' 9435   3.195   5.753   3.688 -0.7456  0.6548 -0.6641
  497EMI    H1' 9436   3.338   5.703   3.780 -1.8012 -0.6525 -0.0216
  497EMI    C1" 9437   2.986   5.789   4.204  0.1405 -0.0244 -0.1534
  497EMI    H1" 9438   2.884   5.747   4.185 -1.7370 -2.4260 -2.6346
  497EMI    H1" 9439   2.957   5.893   4.246 -0.5992  1.4499 -1.1220
  497EMI    C2" 9440   3.048   5.708   4.316  0.2735 -0.7846 -0.2231
  497EMI    H2" 9441   3.091   5.614   4.279  0.0043 -1.5788 -0.0969
  497EMI    H2" 9442   3.137   5.752   4.355  0.8002 -0.5369 -0.0541
  497EMI    H2" 9443   2.976   5.697   4.398 -0.2870  2.4138  1.7460
  498EMI     N1 9444   2.930   6.685   5.884  0.8165  0.5827 -0.5741
  498EMI     C2 9445   2.945   6.811   5.858  0.1529  0.6044  0.1245
  498EMI     N3 9446   3.055   6.851   5.922  0.3516  0.0955 -0.1974
  498EMI     C4 9447   3.113   6.744   5.990  0.8119 -0.5771 -0.1523
  498EMI     C5 9448   3.030   6.640   5.966 -0.2041 -0.1090 -0.2534
  498EMI     H2 9449   2.881   6.872   5.792 -0.8570  0.9752  1.9315
  498EMI     H4 9450   3.203   6.739   6.053 -1.2760 -1.9832  0.4610
  498EMI     H5 9451   3.042   6.539   6.009 -3.0479 -1.4164 -1.1168
  498EMI    C1' 9452   3.122   6.985   5.912  0.5202 -0.3564  0.7702
  498EMI    H1' 9453   3.160   6.990   5.811 -0.6119 -2.0088  2.8866
  498EMI    H1' 9454   3.052   7.063   5.930  0.0063  1.1195 -1.7197
  498EMI    H1' 9455   3.213   6.993   5.970  0.0363  1.9944  0.9798
  498EMI    C1" 9456   2.837   6.585   5.836 -0.1038 -0.6180  0.2386
  498EMI    H1" 9457   2.866   6.484   5.869 -0.8508 -1.3396 -1.3199
  498EMI    H1" 9458   2.817   6.600   5.730 -0.7552 -1.2309 -0.2528
  498EMI    C2" 9459   2.707   6.621   5.907 -0.3909  0.0872  0.4092
  498EMI    H2" 9460   2.673   6.718   5.893  0.9964 -0.3053 -0.3712
  498EMI    H2" 9461   2.634   6.554   5.861 -0.9845  2.3079  0.9569
  498EMI    H2" 9462   2.727   6.620   6.017  0.2863 -1.5583 -3.5481
  499EMI     N1 9463   5.401   2.089   5.450  0.4044 -0.1185  0.0157
  499EMI     C2 9464   5.459   2.123   5.335  0.0432 -0.1961 -0.1411
  499EMI     N3 9465   5.593   2.106   5.340 -0.2565  0.1627  0.2873
  499EMI     C4 9466   5.620   2.064   5.471 -0.3542 -0.4835  0.1077
  499EMI     C5 9467   5.504   2.060   5.541 -0.3305 -0.2909  0.3325
  499EMI     H2 9468   5.399   2.169   5.257  1.4774  2.3475 -0.3638
  499EMI     H4 9469   5.721   2.037   5.511  2.0388 -0.0542 -1.0565
  499EMI     H5 9470   5.506   2.035   5.646  0.5774  0.3848  2.7872
  499EMI    C1' 9471   5.702   2.133   5.245 -0.0821 -0.0414  0.3964
  499EMI    H1' 9472   5.728   2.038   5.187  0.5064 -2.7812 -1.8277
  499EMI    H1' 9473   5.684   2.212   5.173 -0.7555 -3.2536  0.7501
  499EMI    H1' 9474   5.785   2.177   5.305  0.5755  1.9550 -0.3639
  499EMI    C1" 9475   5.258   2.084   5.495  1.0081 -0.3143  0.4098
  499EMI    H1" 9476   5.206   2.176   5.454 -1.9002  1.0251 -0.2725
  499EMI    H1" 9477   5.251   2.087   5.608 -1.7624  0.4074  2.3140
  499EMI    C2" 9478   5.181   1.961   5.443 -0.7635  0.0245 -0.6389
  499EMI    H2" 9479   5.212   1.935   5.342  1.1912 -1.8747 -0.4907
  499EMI    H2" 9480   5.199   1.870   5.514 -1.2413  1.1093 -0.2002
  499EMI    H2" 9481   5.070   1.980   5.442 -1.1972 -2.7126 -1.3509
  500EMI     N1 9482   3.038   2.902   0.565 -0.4763  0.1040  0.6006
  500EMI     C2 9483   3.044   2.892   0.698  0.6543 -0.2011  0.3536
  500EMI     N3 9484   3.121   2.999   0.747 -0.3087 -0.5381 -0.4206
  500EMI     C4 9485   3.153   3.077   0.633 -0.2273  0.0777 -0.0942
  500EMI     C5 9486   3.105   3.009   0.528  0.1172  0.1659  0.6507
  500EMI     H2 9487   3.010   2.807   0.754 -0.5588 -0.4678 -0.9285
  500EMI     H4 9488   3.219   3.164   0.627  2.0749  0.8131 -1.8096
  500EMI     H5 9489   3.117   3.041   0.423 -0.6085 -1.6421 -0.6187
  500EMI    C1' 9490   3.186   3.027   0.875  0.6546 -0.1293 -0.2684
  500EMI    H1' 9491   3.225   3.125   0.873 -0.3723 -0.5302  1.6248
  500EMI    H1' 9492   3.117   3.010   0.956 -0.0138 -0.0987  0.1296
  500EMI    H1' 9493   3.276   2.967   0.886 -1.9598 -1.3768 -0.1185
  500EMI    C1" 9494   2.984   2.807   0.471  0.1650 -0.1179  0.2761
  500EMI    H1" 9495   2.972   2.855   0.376  2.6126  0.8558  3.0346
  500EMI    H1" 9496   2.894   2.768   0.511  0.9984 -0.9195 -2.9217
  500EMI    C2" 9497   3.070   2.681   0.450 -0.1822 -0.3847  0.6655
  500EMI    H2" 9498   3.029   2.628   0.367  2.2046  0.0779  0.3437
  500EMI    H2" 9499   3.176   2.710   0.430  1.6292  0.3279  1.9681
  500EMI    H2" 9500   3.060   2.614   0.534  1.8696 -0.2106  2.1307
  501EMI     N1 9501   0.133   3.686   0.424 -0.2344 -0.5259 -0.1720
  501EMI     C2 9502   0.193   3.573   0.471 -0.2719 -0.5282 -0.4920
  501EMI     N3 9503   0.245   3.610   0.591 -0.1829  0.3756  0.4100
  501EMI     C4 9504   0.222   3.742   0.613 -0.7983  0.1033  0.0012
  501EMI     C5 9505   0.151   3.791   0.509  0.2184  0.4839 -0.3190
  501EMI     H2 9506   0.210   3.480   0.424 -0.4927  2.0305 -0.8656
  501EMI     H4 9507   0.254   3.798   0.702  0.9272  0.2644 -1.0641
  501EMI     H5 9508   0.106   3.891   0.492 -1.2647  0.2575 -0.9673
  501EMI    C1' 9509   0.329   3.530   0.685  0.3704 -0.3227 -0.4487
  501EMI    H1' 9510   0.376   3.445   0.634 -0.1911 -1.2920  0.4294
  501EMI    H1' 9511   0.394   3.606   0.727 -0.2910 -0.5393 -0.5754
  501EMI    H1' 9512   0.276   3.481   0.771 -0.0285  0.5672  0.7113
  501EMI    C1" 9513   0.083   3.715   0.287 -0.4265  0.6914 -0.1906
  501EMI    H1" 9514   0.161   3.761   0.217 -1.1710  2.5362  1.3610
  501EMI    H1" 9515   0.001   3.790   0.285  1.4461  1.4370  0.1192
  501EMI    C2" 9516   0.038   3.582   0.222 -0.4260  0.3716 -1.6825
  501EMI    H2" 9517  -0.013   3.603   0.130  0.4457  2.7928 -0.5550
  501EMI    H2" 9518   0.137   3.530   0.204 -0.5912 -2.3163 -0.6809
  501EMI    H2" 9519  -0.030   3.533   0.288  1.9292 -2.4246  1.1670
  502EMI     N1 9520   4.121   5.407   5.628  0.1919  0.0511 -0.0999
  502EMI     C2 9521   4.024   5.412   5.720 -0.1323  0.7659 -0.3017
  502EMI     N3 9522   3.933   5.504   5.686 -0.3973 -0.5165 -0.2314
  502EMI     C4 9523   3.981   5.568   5.569 -0.1084  0.2594 -0.2718
  502EMI     C5 9524   4.094   5.502   5.539 -0.3752 -0.3166 -0.0900
  502EMI     H2 9525   4.008   5.340   5.793  1.8723 -1.2122  0.6187
  502EMI     H4 9526   3.943   5.656   5.520  1.1603 -2.1452 -1.6345
  502EMI     H5 9527   4.157   5.519   5.454 -1.0708 -0.1055 -1.4325
  502EMI    C1' 9528   3.804   5.540   5.750 -0.4116 -0.2749 -0.5436
  502EMI    H1' 9529   3.723   5.543   5.677  1.2423  0.5519 -1.8325
  502EMI    H1' 9530   3.781   5.459   5.823  1.0873 -0.6265 -0.3414
  502EMI    H1' 9531   3.804   5.635   5.796 -0.7874  0.8415  1.7661
  502EMI    C1" 9532   4.241   5.324   5.620  0.3519 -0.0797 -0.4576
  502EMI    H1" 9533   4.235   5.274   5.524 -0.4278  0.8166 -1.2155
  502EMI    H1" 9534   4.238   5.250   5.696 -3.5476  1.0970 -1.3746
  502EMI    C2" 9535   4.371   5.401   5.639 -0.2323 -0.2682 -0.8111
  502EMI    H2" 9536   4.461   5.343   5.624 -1.1093  0.0727  1.9231
  502EMI    H2" 9537   4.377   5.480   5.566 -3.0049 -2.6029 -4.0619
  502EMI    H2" 9538   4.372   5.436   5.742  1.4601 -2.0153 -0.3241
  503EMI     N1 9539   1.218   3.234   6.030 -0.0755  0.0738 -0.0756
  503EMI     C2 9540   1.129   3.271   5.936 -0.0669 -0.2089 -0.4273
  503EMI     N3 9541   1.176   3.233   5.813  0.1198 -0.6038 -0.1166
  503EMI     C4 9542   1.298   3.184   5.829 -0.2014 -0.0943  0.7478
  503EMI     C5 9543   1.329   3.184   5.961 -0.0193 -0.0497  0.4543
  503EMI     H2 9544   1.039   3.330   5.953 -1.5394  1.9753 -0.1770
  503EMI     H4 9545   1.366   3.141   5.755  1.4603  0.4690  0.6238
  503EMI     H5 9546   1.427   3.156   5.999 -0.7702 -2.5794 -1.0902
  503EMI    C1' 9547   1.099   3.247   5.688  0.4946 -0.8786 -0.2193
  503EMI    H1' 9548   1.139   3.184   5.616 -3.2103  0.5892 -1.6144
  503EMI    H1' 9549   0.994   3.215   5.706  1.9718 -0.6782  1.6596
  503EMI    H1' 9550   1.087   3.345   5.645 -2.4028 -3.9584 -0.9682
  503EMI    C1" 9551   1.218   3.239   6.178  0.5883  0.0956 -1.0964
  503EMI    H1" 9552   1.252   3.140   6.223 -1.3522 -1.7713 -0.3359
  503EMI    H1" 9553   1.118   3.258   6.216  2.3655  1.3304 -1.6656
  503EMI    C2" 9554   1.296   3.352   6.227  0.4172 -0.5467  0.0075
  503EMI    H2" 9555   1.261   3.447   6.174 -1.1469  0.6359 -3.4961
  503EMI    H2" 9556   1.277   3.367   6.334 -1.5190 -0.1158 -0.2008
  503EMI    H2" 9557   1.399   3.349   6.207  0.6493 -0.4206  2.7843
  504EMI     N1 9558   1.026   0.289   6.348 -0.4706  0.5820  0.8363
  504EMI     C2 9559   0.946   0.272   6.242  0.3304  0.2416 -0.3703
  504EMI     N3 9560   0.999   0.338   6.140 -0.2455 -0.1594 -0.5633
  504EMI     C4 9561   1.111   0.399   6.183 -0.0870 -0.4637 -0.6054
  504EMI     C5 9562   1.127   0.377   6.311  0.6227  0.1091 -0.3807
  504EMI     H2 9563   0.860   0.205   6.246 -2.0459  1.5461  0.8523
  504EMI     H4 9564   1.167   0.473   6.129  0.1038 -0.8759  2.5312
  504EMI     H5 9565   1.203   0.410   6.383  2.1312  1.6708  1.1435
  504EMI    C1' 9566   0.959   0.356   5.999  0.1873 -0.1355  0.7111
  504EMI    H1' 9567   0.858   0.319   5.985 -1.0217 -3.5995 -1.1832
  504EMI    H1' 9568   0.980   0.453   5.969  0.1720  1.2969  1.3065
  504EMI    H1' 9569   1.015   0.284   5.946  2.4219 -1.0654 -1.0056
  504EMI    C1" 9570   1.030   0.219   6.478  0.4596  0.6259 -0.0258
  504EMI    H1" 9571   1.069   0.281   6.557 -0.5829  0.9368 -1.8813
  504EMI    H1" 9572   1.093   0.129   6.478  1.4165 -2.8175 -0.2377
  504EMI    C2" 9573   0.888   0.170   6.522  0.1545  0.1745  0.3275
  504EMI    H2" 9574   0.832   0.266   6.523 -0.6311  0.7104 -0.1272
  504EMI    H2" 9575   0.844   0.102   6.449  0.9750 -1.5914  2.5032
  504EMI    H2" 9576   0.902   0.129   6.622 -0.1881 -1.0641 -0.7412
  505EMI     N1 9577   2.889   2.432   6.079  0.5005 -0.5073 -0.5855
  505EMI     C2 9578   3.012   2.473   6.113 -0.2038  0.1961 -0.1943
  505EMI     N3 9579   3.100   2.446   6.014 -0.0527 -0.3788  0.1828
  505EMI     C4 9580   3.029   2.381   5.919  0.4190  0.3033 -0.2922
  505EMI     C5 9581   2.895   2.373   5.955  0.4777  0.4701 -0.7115
  505EMI     H2 9582   3.042   2.520   6.212  1.7518 -2.6132  2.4721
  505EMI     H4 9583   3.073   2.344   5.829  1.2561 -1.6620  1.5502
  505EMI     H5 9584   2.805   2.335   5.902 -1.3624  3.1731  0.6058
  505EMI    C1' 9585   3.248   2.443   6.013 -0.3456 -0.1088  1.2312
  505EMI    H1' 9586   3.280   2.357   6.071 -0.5636 -1.4338 -1.5480
  505EMI    H1' 9587   3.276   2.455   5.908  1.8499  2.4463  0.2367
  505EMI    H1' 9588   3.279   2.532   6.055 -0.8673  2.0117  1.7273
  505EMI    C1" 9589   2.752   2.445   6.151 -0.8561 -0.3536  0.5951
  505EMI    H1" 9590   2.761   2.454   6.258 -2.5768 -1.7259 -0.4229
  505EMI    H1" 9591   2.691   2.355   6.129 -0.7107  1.0438  1.2792
  505EMI    C2" 9592   2.680   2.571   6.104 -0.0156 -0.3858  0.0032
  505EMI    H2" 9593   2.578   2.569   6.141  4.2280 -0.0400  0.9340
  505EMI    H2" 9594   2.729   2.655   6.158  3.3787  1.3941 -0.9971
  505EMI    H2" 9595   2.679   2.584   5.993  0.3180  1.2047 -3.2136
  506EMI     N1 9596   3.117   2.840   3.307  0.3192 -0.2165 -0.2670
  506EMI     C2 9597   3.105   2.780   3.425 -0.0685 -0.4827 -0.2460
  506EMI     N3 9598   2.985   2.817   3.481 -0.0605  0.1776 -0.2627
  506EMI     C4 9599   2.926   2.905   3.396  0.0201  0.1786  0.3928
  506EMI     C5 9600   3.008   2.920   3.289 -0.0121  0.3873  1.1746
  506EMI     H2 9601   3.172   2.707   3.468 -2.2720  0.8642 -1.2594
  506EMI     H4 9602   2.835   2.962   3.419  0.5835  2.5012  3.5907
  506EMI     H5 9603   2.984   2.979   3.206  0.4973  0.1775  0.8234
  506EMI    C1' 9604   2.942   2.797   3.624  0.8160  0.3468  0.4181
  506EMI    H1' 9605   2.905   2.693   3.633 -0.1563 -0.9142 -0.0809
  506EMI    H1' 9606   3.037   2.812   3.676  1.0001 -0.7164  0.1424
  506EMI    H1' 9607   2.870   2.866   3.652 -0.7619 -0.0268  1.1910
  506EMI    C1" 9608   3.231   2.836   3.216  0.4159 -0.5116  0.1571
  506EMI    H1" 9609   3.195   2.819   3.116  0.3274 -0.1480 -0.3637
  506EMI    H1" 9610   3.298   2.752   3.235 -2.4998 -1.3139 -1.0155
  506EMI    C2" 9611   3.311   2.972   3.221 -0.6178 -0.4935  0.3355
  506EMI    H2" 9612   3.371   2.982   3.132  2.7617 -1.1802  0.8517
  506EMI    H2" 9613   3.246   3.058   3.213  1.1841  1.4563  1.5103
  506EMI    H2" 9614   3.382   2.962   3.305 -2.1083 -2.5308  0.5375
  507EMI     N1 9615   4.647   3.179   1.653  0.2881  0.4411 -0.6894
  507EMI     C2 9616   4.556   3.238   1.735 -0.6569  0.4578 -0.7208
  507EMI     N3 9617   4.609   3.251   1.859 -0.0254  0.1817 -0.5797
  507EMI     C4 9618   4.737   3.201   1.855  0.2073 -0.4534  0.0835
  507EMI     C5 9619   4.755   3.148   1.731  0.0996  0.4532  0.3931
  507EMI     H2 9620   4.462   3.266   1.693  0.9832 -2.1725  1.2247
  507EMI     H4 9621   4.801   3.191   1.943  2.1765 -1.7451  2.4698
  507EMI     H5 9622   4.838   3.096   1.697 -1.9123 -0.0342  0.5400
  507EMI    C1' 9623   4.545   3.300   1.980 -0.0956  0.8417 -0.2751
  507EMI    H1' 9624   4.551   3.225   2.056 -0.7571  0.7428 -0.3026
  507EMI    H1' 9625   4.591   3.389   2.021 -2.6327 -0.1646 -0.1505
  507EMI    H1' 9626   4.438   3.330   1.963  1.4306  1.3613 -2.0147
  507EMI    C1" 9627   4.644   3.154   1.511  0.1917 -0.1666 -0.2970
  507EMI    H1" 9628   4.541   3.107   1.486 -1.9774 -0.1614 -0.6152
  507EMI    H1" 9629   4.723   3.079   1.486  0.6269 -2.7410  0.3078
  507EMI    C2" 9630   4.653   3.282   1.432 -0.3880  0.0056  0.1331
  507EMI    H2" 9631   4.649   3.265   1.330 -2.2232 -1.0313  1.5862
  507EMI    H2" 9632   4.569   3.347   1.464 -0.9571  0.7039 -1.4494
  507EMI    H2" 9633   4.744   3.329   1.460  1.1371 -0.7071 -2.3726
  508EMI     N1 9634   1.703   0.480   3.701  0.0563 -0.2033  0.2445
  508EMI     C2 9635   1.688   0.485   3.566 -0.2773 -0.1835 -0.1934
  508EMI     N3 9636   1.809   0.503   3.503  0.2418 -0.2386  0.4088
  508EMI     C4 9637   1.900   0.498   3.603 -0.9640  0.8935 -0.2383
  508EMI     C5 9638   1.838   0.479   3.724 -0.4977  0.3794 -0.1417
  508EMI     H2 9639   1.594   0.490   3.516  0.5337 -0.7284 -0.4006
  508EMI     H4 9640   2.003   0.528   3.594  2.5259  3.7526 -1.2743
  508EMI     H5 9641   1.892   0.474   3.819 -0.8388  0.8111 -1.6253
  508EMI    C1' 9642   1.842   0.524   3.366  0.4018 -0.1907 -0.0551
  508EMI    H1' 9643   1.802   0.626   3.340 -2.0577 -2.6973 -0.9211
  508EMI    H1' 9644   1.948   0.516   3.351 -0.4823  2.4386 -0.5304
  508EMI    H1' 9645   1.789   0.452   3.303  1.6962 -1.6888 -1.2664
  508EMI    C1" 9646   1.608   0.463   3.804  0.4369  0.3434  0.0276
  508EMI    H1" 9647   1.587   0.361   3.807 -0.1306  1.9303 -0.0815
  508EMI    H1" 9648   1.508   0.510   3.777  1.5051  0.7498 -1.2982
  508EMI    C2" 9649   1.643   0.523   3.939 -0.5213  1.0127 -0.3239
  508EMI    H2" 9650   1.697   0.620   3.934 -1.3989 -0.9037 -0.5514
  508EMI    H2" 9651   1.543   0.530   3.988  1.7560  1.2369  0.0299
  508EMI    H2" 9652   1.708   0.455   3.999  0.4209  1.4551  0.6012
  509EMI     N1 9653   2.583   0.108   2.514 -0.1677 -0.7512 -0.3578
  509EMI     C2 9654   2.554   0.004   2.594  1.3418 -0.0349  0.2883
  509EMI     N3 9655   2.646  -0.018   2.690  0.0312  0.7494  0.4477
  509EMI     C4 9656   2.749   0.071   2.662 -0.7370 -0.1925 -0.4414
  509EMI     C5 9657   2.708   0.150   2.561  0.1820 -0.3327  0.1049
  509EMI     H2 9658   2.472  -0.063   2.592  1.6288  0.0369 -0.7810
  509EMI     H4 9659   2.837   0.084   2.715 -0.5601  1.6769 -0.0997
  509EMI     H5 9660   2.745   0.252   2.535  0.3811  2.8918  1.1581
  509EMI    C1' 9661   2.662  -0.127   2.792  0.0628  0.3925 -0.5267
  509EMI    H1' 9662   2.639  -0.087   2.887 -0.1936 -1.2426 -1.1312
  509EMI    H1' 9663   2.604  -0.214   2.768  0.8439 -0.7558  0.9431
  509EMI    H1' 9664   2.761  -0.169   2.809 -0.0139 -0.8433  1.6664
  509EMI    C1" 9665   2.516   0.161   2.389 -0.3959  0.0551  0.3044
  509EMI    H1" 9666   2.455   0.075   2.344 -1.8702 -1.0090  0.3220
  509EMI    H1" 9667   2.590   0.182   2.309 -0.9513  0.8053  0.4827
  509EMI    C2" 9668   2.422   0.285   2.412  0.2892  0.0138 -0.0164
  509EMI    H2" 9669   2.397   0.342   2.324  0.9491 -0.7426 -1.3776
  509EMI    H2" 9670   2.323   0.268   2.461 -0.6160  1.7605  0.1453
  509EMI    H2" 9671   2.480   0.351   2.469 -3.2253 -0.4377  1.1048
  510EMI     N1 9672   1.799   2.723   4.410 -0.0694 -0.5657  0.2782
  510EMI     C2 9673   1.881   2.795   4.332 -0.2712 -0.4010 -0.5590
  510EMI     N3 9674   1.851   2.926   4.342 -0.2203  0.2924  0.4835
  510EMI     C4 9675   1.754   2.934   4.438 -0.6607  0.6977  0.2957
  510EMI     C5 9676   1.723   2.809   4.481  0.6283  0.1184 -0.5957
  510EMI     H2 9677   1.959   2.754   4.271  0.9565 -1.4834 -1.8209
  510EMI     H4 9678   1.712   3.032   4.460  1.9205 -0.8642 -1.4260
  510EMI     H5 9679   1.660   2.791   4.563  0.6885  1.8866 -3.2434
  510EMI    C1' 9680   1.912   3.037   4.276 -0.1038  0.9385  0.5963
  510EMI    H1' 9681   1.957   3.098   4.353 -1.5753 -1.1545  0.7097
  510EMI    H1' 9682   1.998   3.018   4.209 -2.9671 -1.7656 -0.6395
  510EMI    H1' 9683   1.837   3.088   4.220  0.0741 -0.5368  0.2046
  510EMI    C1" 9684   1.791   2.579   4.442 -0.0639  0.1334 -0.0025
  510EMI    H1" 9685   1.711   2.559   4.513 -0.4522  2.1261  0.5862
  510EMI    H1" 9686   1.878   2.559   4.499 -1.2707  2.9651 -2.5026
  510EMI    C2" 9687   1.796   2.498   4.315 -0.2018  0.5256  0.2910
  510EMI    H2" 9688   1.885   2.528   4.258 -1.5235  2.9581  2.1722
  510EMI    H2" 9689   1.791   2.392   4.335 -0.6365  2.9609 -0.7006
  510EMI    H2" 9690   1.710   2.521   4.250 -0.4233  2.9329 -0.4092
  511EMI     N1 9691   6.386   4.525   0.764 -0.8351 -0.3601  0.2300
  511EMI     C2 9692   6.368   4.656   0.732  0.1823  0.3717 -0.5429
  511EMI     N3 9693   6.238   4.686   0.724 -0.1655 -0.8333  0.2003
  511EMI     C4 9694   6.170   4.571   0.748  0.5707 -1.2748  0.9971
  511EMI     C5 9695   6.259   4.472   0.768 -0.3492 -0.4787  0.3931
  511EMI     H2 9696   6.434   4.739   0.718 -0.2479 -1.8113 -0.4823
  511EMI     H4 9697   6.061   4.566   0.756 -3.5120  0.5075  0.0725
  511EMI     H5 9698   6.229   4.368   0.785  0.6521  1.5072 -0.0486
  511EMI    C1' 9699   6.173   4.816   0.730 -0.2416 -0.8559 -0.5639
  511EMI    H1' 9700   6.244   4.892   0.702  0.7942  0.9001 -0.5906
  511EMI    H1' 9701   6.088   4.823   0.665  2.6177 -1.7900  0.1091
  511EMI    H1' 9702   6.135   4.822   0.827  0.6397 -0.1183 -2.9414
  511EMI    C1" 9703   6.505   4.450   0.790 -0.4076  0.3664  0.3342
  511EMI    H1" 9704   6.536   4.399   0.700 -0.1900 -1.4916  0.3906
  511EMI    H1" 9705   6.484   4.369   0.857  1.1274 -0.3720  2.5933
  511EMI    C2" 9706   6.619   4.535   0.839  0.4188  0.5247  0.2864
  511EMI    H2" 9707   6.583   4.583   0.927 -2.2337 -3.2753  0.8570
  511EMI    H2" 9708   6.708   4.475   0.863 -0.9855 -3.3417  1.0013
  511EMI    H2" 9709   6.656   4.612   0.770 -1.6401 -0.9296 -2.4220
  512EMI     N1 9710   5.017   5.616   3.818 -0.2132 -0.0112  0.4274
  512EMI     C2 9711   5.091   5.505   3.829 -0.2865 -0.4513 -0.5942
  512EMI     N3 9712   5.033   5.415   3.909 -0.4325  0.2863 -0.3195
  512EMI     C4 9713   4.917   5.475   3.957 -0.7301 -0.2489 -0.3352
  512EMI     C5 9714   4.906   5.594   3.897 -0.0357  0.1750  0.4284
  512EMI     H2 9715   5.188   5.485   3.779 -1.7431 -0.6206 -0.4615
  512EMI     H4 9716   4.853   5.430   4.027 -0.1959  0.1175  0.8243
  512EMI     H5 9717   4.824   5.666   3.919  2.4805  0.9250 -1.3669
  512EMI    C1' 9718   5.077   5.279   3.946 -0.3910  0.6535  0.3479
  512EMI    H1' 9719   5.093   5.210   3.859 -1.5866  2.0337 -0.5115
  512EMI    H1' 9720   5.174   5.301   3.993 -0.7164 -0.3101 -0.0742
  512EMI    H1' 9721   5.020   5.238   4.021  0.1128  0.1895 -0.3861
  512EMI    C1" 9722   5.026   5.746   3.742  0.5741  0.3560 -0.0986
  512EMI    H1" 9723   5.037   5.836   3.803  0.4010 -0.2430 -1.4968
  512EMI    H1" 9724   4.939   5.750   3.677 -0.7698 -0.0220 -5.4647
  512EMI    C2" 9725   5.147   5.731   3.644 -0.1128  0.6502 -1.0578
  512EMI    H2" 9726   5.129   5.647   3.572 -0.8514  0.1935 -2.2407
  512EMI    H2" 9727   5.140   5.808   3.570  2.2461 -1.1358  0.1783
  512EMI    H2" 9728   5.240   5.728   3.694 -1.7877  0.7875 -0.9778
  513EMI     N1 9729   4.684   4.229   5.747  0.3560 -0.3769  0.5382
  513EMI     C2 9730   4.784   4.195   5.663  0.2062  0.3764 -0.7752
  513EMI     N3 9731   4.901   4.247   5.714  0.8402 -0.0081 -0.4616
  513EMI     C4 9732   4.866   4.323   5.818 -0.6125 -0.1771  0.2596
  513EMI     C5 9733   4.735   4.320   5.841 -0.2926 -0.1978 -0.3037
  513EMI     H2 9734   4.782   4.128   5.580  1.1925 -1.0085  4.8160
  513EMI     H4 9735   4.945   4.373   5.876 -0.2176  0.9815 -4.4431
  513EMI     H5 9736   4.695   4.366   5.930 -1.4449 -0.7195 -0.6198
  513EMI    C1' 9737   5.040   4.219   5.680 -0.0529 -0.0523 -0.0879
  513EMI    H1' 9738   5.082   4.184   5.774 -0.9379 -1.2772  0.6841
  513EMI    H1' 9739   5.051   4.147   5.598 -1.4687 -0.3393 -1.4629
  513EMI    H1' 9740   5.087   4.311   5.647 -0.8955  2.8206 -1.3306
  513EMI    C1" 9741   4.538   4.189   5.754  0.1259 -0.2288  0.0229
  513EMI    H1" 9742   4.483   4.196   5.858  1.7784  1.2571  2.7811
  513EMI    H1" 9743   4.541   4.081   5.732  0.2053 -0.1156 -2.8765
  513EMI    C2" 9744   4.457   4.256   5.640  0.3038 -0.6597 -0.4680
  513EMI    H2" 9745   4.361   4.210   5.620 -0.0080  0.5284  0.1616
  513EMI    H2" 9746   4.433   4.362   5.672  1.4590  3.0354  0.4523
  513EMI    H2" 9747   4.509   4.249   5.550 -0.4994 -0.6924 -2.4757
  514EMI     N1 9748   0.884   2.113   0.852  0.3933  0.1420 -0.0260
  514EMI     C2 9749   0.968   2.175   0.935 -0.9243 -0.1273  0.0326
  514EMI     N3 9750   1.063   2.244   0.865  0.4685  0.9336  0.0158
  514EMI     C4 9751   1.038   2.223   0.730  0.5425 -0.3545 -0.6459
  514EMI     C5 9752   0.920   2.159   0.724 -0.1362 -0.1731 -0.2937
  514EMI     H2 9753   0.969   2.161   1.040 -0.9664  2.0042  0.8583
  514EMI     H4 9754   1.107   2.270   0.658  0.1525  3.1064 -2.4974
  514EMI     H5 9755   0.864   2.125   0.639 -0.1053  1.5421 -0.2130
  514EMI    C1' 9756   1.185   2.307   0.906  0.3187  0.3300  0.2493
  514EMI    H1' 9757   1.258   2.301   0.825  0.1724  1.5943 -0.8152
  514EMI    H1' 9758   1.156   2.407   0.940  0.4464  0.1348 -1.4670
  514EMI    H1' 9759   1.214   2.252   0.993 -0.8497  0.8629 -2.7068
  514EMI    C1" 9760   0.788   2.008   0.870  0.5201 -0.0301 -0.0378
  514EMI    H1" 9761   0.833   1.926   0.931 -1.4131  0.1681  3.6588
  514EMI    H1" 9762   0.767   1.970   0.763  0.7722 -1.1752 -0.9799
  514EMI    C2" 9763   0.664   2.062   0.938 -0.3497 -0.1206 -0.0582
  514EMI    H2" 9764   0.596   1.984   0.948  0.9202 -1.9407  0.5289
  514EMI    H2" 9765   0.684   2.101   1.041  0.3153 -0.2539 -0.3828
  514EMI    H2" 9766   0.634   2.148   0.882  1.5674 -0.6961 -1.2970
  515EMI     N1 9767   2.865   2.318   3.024  0.1226  0.0984  0.1510
  515EMI     C2 9768   2.919   2.303   3.147 -0.2053  0.2096 -0.2341
  515EMI     N3 9769   2.944   2.428   3.189  0.6575 -0.1483 -0.4245
  515EMI     C4 9770   2.906   2.520   3.099  0.3484  0.6475 -0.1319
  515EMI     C5 9771   2.856   2.452   2.995  0.7403 -0.0410  0.6396
  515EMI     H2 9772   2.933   2.208   3.191 -0.9440 -1.5546 -4.6053
  515EMI     H4 9773   2.910   2.629   3.106 -1.2367  0.7806 -0.3835
  515EMI     H5 9774   2.817   2.500   2.902  0.4030  1.1631  0.2008
  515EMI    C1' 9775   3.008   2.476   3.315  0.2901  0.0801  0.9098
  515EMI    H1' 9776   2.936   2.471   3.394  0.2319 -2.5139 -0.7291
  515EMI    H1' 9777   3.102   2.425   3.323  1.8457  1.3091 -0.5636
  515EMI    H1' 9778   3.023   2.582   3.302 -1.5721 -0.5935  0.6229
  515EMI    C1" 9779   2.815   2.220   2.931 -0.2581 -0.0912  0.3000
  515EMI    H1" 9780   2.875   2.130   2.944  1.4174  1.5145 -1.4402
  515EMI    H1" 9781   2.819   2.255   2.827 -2.1458  1.8420 -0.1945
  515EMI    C2" 9782   2.672   2.184   2.959 -0.6264  0.8950  0.0704
  515EMI    H2" 9783   2.661   2.130   3.060 -0.1922  1.3326 -0.3368
  515EMI    H2" 9784   2.611   2.280   2.958  1.0527 -1.4806  0.4878
  515EMI    H2" 9785   2.651   2.106   2.882 -0.5261  0.5416 -1.1980
  516EMI     N1 9786   5.057   5.390   5.073  0.2740  0.4729 -0.5516
  516EMI     C2 9787   4.925   5.361   5.064 -0.5292 -0.4657 -0.3270
  516EMI     N3 9788   4.865   5.461   5.000 -0.3360 -1.0120 -0.0857
  516EMI     C4 9789   4.960   5.550   4.966  0.8174  0.6110 -0.6939
  516EMI     C5 9790   5.077   5.511   5.019 -0.0286 -0.9624 -0.6771
  516EMI     H2 9791   4.882   5.264   5.091  0.5273 -0.1995  1.0934
  516EMI     H4 9792   4.946   5.636   4.903 -1.2865  0.0574 -1.6850
  516EMI     H5 9793   5.169   5.563   5.009  0.8676 -0.3452 -0.3755
  516EMI    C1' 9794   4.732   5.472   4.950  0.5329  0.3350  0.1127
  516EMI    H1' 9795   4.655   5.453   5.032 -2.7470 -0.2683  0.5802
  516EMI    H1' 9796   4.713   5.568   4.907 -2.3032  0.0361 -1.1710
  516EMI    H1' 9797   4.708   5.399   4.875  1.7480  0.5678  0.6844
  516EMI    C1" 9798   5.173   5.323   5.131 -0.7255  0.4944  0.3483
  516EMI    H1" 9799   5.181   5.361   5.235 -0.6365  0.7412  2.6548
  516EMI    H1" 9800   5.265   5.358   5.078  1.7694  0.3190 -1.6606
  516EMI    C2" 9801   5.158   5.168   5.132 -0.1268 -0.1765 -0.5901
  516EMI    H2" 9802   5.088   5.135   5.207  1.0102  0.4778  2.0896
  516EMI    H2" 9803   5.132   5.129   5.036 -0.7291 -0.8896 -2.1611
  516EMI    H2" 9804   5.257   5.119   5.153  1.2605  0.4051  0.3671
  517EMI     N1 9805   3.652   4.949   0.867  0.3576  0.2074 -0.8441
  517EMI     C2 9806   3.709   5.071   0.887 -0.0121 -0.3958 -0.0193
  517EMI     N3 9807   3.690   5.149   0.784 -0.4192  0.2035 -0.3928
  517EMI     C4 9808   3.612   5.076   0.690  0.4285 -0.3798 -0.0801
  517EMI     C5 9809   3.591   4.954   0.743 -0.0315 -0.4886  0.6832
  517EMI     H2 9810   3.776   5.109   0.972  3.4047  4.3262 -1.8902
  517EMI     H4 9811   3.576   5.121   0.597 -4.3646 -1.9608 -2.4183
  517EMI     H5 9812   3.535   4.875   0.697  0.4412  0.4051  1.3584
  517EMI    C1' 9813   3.735   5.281   0.760  0.2598 -0.6498  0.2965
  517EMI    H1' 9814   3.658   5.347   0.786 -0.6193  0.6464 -3.8448
  517EMI    H1' 9815   3.825   5.304   0.806 -0.8733 -1.1340 -0.4945
  517EMI    H1' 9816   3.756   5.299   0.657 -2.0711  2.6762  0.5423
  517EMI    C1" 9817   3.640   4.826   0.954 -0.0869  0.1176  1.0107
  517EMI    H1" 9818   3.566   4.759   0.917  3.6398  3.4027 -2.3983
  517EMI    H1" 9819   3.626   4.858   1.055 -0.0790  2.9664 -1.2196
  517EMI    C2" 9820   3.773   4.757   0.945 -0.0699 -0.4952  0.4451
  517EMI    H2" 9821   3.779   4.698   1.033  0.7840 -0.6641 -1.0731
  517EMI    H2" 9822   3.789   4.701   0.860 -0.3410  0.1291 -3.1535
  517EMI    H2" 9823   3.850   4.837   0.945  3.1515  4.3135 -1.4554
  518EMI     N1 9824   3.795   3.467   3.793 -0.0674 -0.0423 -0.0633
  518EMI     C2 9825   3.868   3.462   3.907 -0.0436  0.7398 -0.3564
  518EMI     N3 9826   3.842   3.353   3.973  0.3686 -0.4607  0.5463
  518EMI     C4 9827   3.737   3.291   3.901 -0.2695 -0.6420 -0.5082
  518EMI     C5 9828   3.709   3.364   3.795  0.0592 -0.6838 -0.6681
  518EMI     H2 9829   3.941   3.523   3.937 -1.8823 -1.9669 -0.5126
  518EMI     H4 9830   3.689   3.197   3.932  0.2791 -1.3283  0.4829
  518EMI     H5 9831   3.624   3.339   3.735 -1.9874 -0.9857  0.8130
  518EMI    C1' 9832   3.885   3.301   4.096  0.3836 -0.0641  0.3913
  518EMI    H1' 9833   3.947   3.210   4.084  1.0087 -1.0762  1.1342
  518EMI    H1' 9834   3.932   3.372   4.160  0.1461  0.8996  1.5779
  518EMI    H1' 9835   3.798   3.261   4.159 -1.0973 -0.2346 -1.5224
  518EMI    C1" 9836   3.782   3.569   3.683  1.0430 -0.2330  0.4376
  518EMI    H1" 9837   3.777   3.671   3.722  2.0194  0.6849  0.0678
  518EMI    H1" 9838   3.684   3.564   3.621  4.1692  1.8849  0.3308
  518EMI    C2" 9839   3.897   3.551   3.587  0.6453 -0.1064 -0.0684
  518EMI    H2" 9840   3.897   3.634   3.511  1.0653 -1.5382 -1.2313
  518EMI    H2" 9841   3.992   3.545   3.636 -1.1320  0.0547  2.4910
  518EMI    H2" 9842   3.876   3.454   3.539 -2.8477 -0.4296  1.8014
  519EMI     N1 9843   3.185   4.145   1.252  0.2209 -0.4454  0.0510
  519EMI     C2 9844   3.242   4.225   1.154  0.6831  0.2609 -0.8944
  519EMI     N3 9845   3.143   4.291   1.088 -0.4963 -0.0467  0.0366
  519EMI     C4 9846   3.022   4.234   1.135  0.0012 -0.4659  0.0994
  519EMI     C5 9847   3.051   4.149   1.235 -0.1347 -0.6398 -0.4008
  519EMI     H2 9848   3.351   4.235   1.131  2.4376 -1.4189  0.7422
  519EMI     H4 9849   2.922   4.261   1.097 -2.0684 -0.0968 -0.5138
  519EMI     H5 9850   2.977   4.090   1.298  1.6298 -1.4862  0.8351
  519EMI    C1' 9851   3.149   4.373   0.969  0.4888  0.2943 -0.6340
  519EMI    H1' 9852   3.256   4.374   0.946 -1.5444 -0.5722  0.3395
  519EMI    H1' 9853   3.089   4.322   0.898 -0.0526 -2.8760  0.9926
  519EMI    H1' 9854   3.111   4.469   1.007  0.0923 -0.6877  0.5007
  519EMI    C1" 9855   3.240   4.036   1.335 -0.3954  0.2068  0.0385
  519EMI    H1" 9856   3.345   4.042   1.314  1.1143 -2.3714 -1.3645
  519EMI    H1" 9857   3.189   3.941   1.294 -0.2597 -1.3408 -0.4075
  519EMI    C2" 9858   3.205   4.040   1.481  0.4096  0.6063  0.3204
  519EMI    H2" 9859   3.242   3.949   1.521 -0.3051  1.7950 -0.5686
  519EMI    H2" 9860   3.253   4.121   1.536 -0.3348 -3.6870  2.6919
  519EMI    H2" 9861   3.098   4.045   1.487  0.5906 -1.0409  0.8341
  520EMI     N1 9862   5.160   6.024   4.042 -0.0192 -0.2948  0.2377
  520EMI     C2 9863   5.125   6.089   3.931  0.0055 -0.2885 -0.2471
  520EMI     N3 9864   5.087   6.214   3.969  1.0746 -0.2603  0.0567
  520EMI     C4 9865   5.115   6.228   4.102  0.3193  0.0709 -0.1821
  520EMI     C5 9866   5.158   6.111   4.146  0.0763  0.4398  0.6646
  520EMI     H2 9867   5.141   6.051   3.833  1.1331 -1.3261 -2.4247
  520EMI     H4 9868   5.102   6.320   4.158  1.4324 -0.6207 -2.3800
  520EMI     H5 9869   5.195   6.088   4.243 -0.3570 -0.7490 -3.2270
  520EMI    C1' 9870   5.020   6.318   3.896 -0.2397  0.1241 -0.6259
  520EMI    H1' 9871   4.935   6.362   3.949 -1.0677  0.4531  0.6602
  520EMI    H1' 9872   5.093   6.404   3.879  0.6834 -2.1798 -1.0719
  520EMI    H1' 9873   4.999   6.279   3.794  1.4661 -0.4219  0.3447
  520EMI    C1" 9874   5.217   5.886   4.059 -0.4158 -0.5054  0.1069
  520EMI    H1" 9875   5.293   5.881   4.136  1.9220  2.0204 -0.3464
  520EMI    H1" 9876   5.256   5.860   3.962  1.2698 -1.0443 -0.3852
  520EMI    C2" 9877   5.113   5.787   4.094 -0.2923  0.4747  0.4705
  520EMI    H2" 9878   5.024   5.805   4.040  0.8492 -0.4262 -0.2958
  520EMI    H2" 9879   5.149   5.688   4.074  1.9072  1.5774 -0.4414
  520EMI    H2" 9880   5.082   5.803   4.198 -1.4242 -0.0765  1.7334
  521EMI     N1 9881   3.548   2.116   1.727 -0.0992 -0.1236  0.1205
  521EMI     C2 9882   3.469   2.190   1.810 -0.4843 -1.1604 -0.1553
  521EMI     N3 9883   3.413   2.293   1.749  0.2616  0.6889  0.4566
  521EMI     C4 9884   3.451   2.281   1.617  0.4846 -0.6629 -0.3056
  521EMI     C5 9885   3.535   2.178   1.599  0.1758  0.3649 -0.0079
  521EMI     H2 9886   3.453   2.171   1.913  0.8424  1.1996 -2.3231
  521EMI     H4 9887   3.416   2.347   1.537 -1.1011  0.9236  1.0200
  521EMI     H5 9888   3.588   2.137   1.514  0.7933 -1.7341  0.7372
  521EMI    C1' 9889   3.311   2.396   1.798 -0.4438  0.1771  0.3228
  521EMI    H1' 9890   3.261   2.442   1.712  1.8558 -3.0910 -0.6474
  521EMI    H1' 9891   3.226   2.355   1.861 -3.5647 -4.3707 -1.1202
  521EMI    H1' 9892   3.359   2.471   1.850 -3.2659  2.1689 -3.5303
  521EMI    C1" 9893   3.630   1.992   1.756  0.3970  0.2004 -0.5488
  521EMI    H1" 9894   3.669   1.944   1.668  2.7809  0.3144  0.7399
  521EMI    H1" 9895   3.564   1.926   1.809 -2.1297  1.6940 -2.7774
  521EMI    C2" 9896   3.754   2.029   1.842  0.0384  0.6707  0.4234
  521EMI    H2" 9897   3.816   2.102   1.785  0.4889 -1.3034 -1.9753
  521EMI    H2" 9898   3.725   2.072   1.942 -1.4149  4.8584  0.9823
  521EMI    H2" 9899   3.813   1.937   1.859 -0.5411  0.1223  2.7360
  522EMI     N1 9900   0.058   3.437   5.710  0.3886 -0.0462 -0.7672
  522EMI     C2 9901   0.107   3.313   5.731  0.1175 -0.1475 -0.5808
  522EMI     N3 9902   0.079   3.241   5.623 -0.0499  0.0185 -0.6218
  522EMI     C4 9903   0.004   3.317   5.538 -0.3237  0.5906  0.6413
  522EMI     C5 9904   0.000   3.442   5.585 -0.4183  0.5996  0.3322
  522EMI     H2 9905   0.171   3.278   5.814  1.6147  1.0572  1.7581
  522EMI     H4 9906  -0.034   3.293   5.442  3.4432  1.9812 -0.0990
  522EMI     H5 9907  -0.042   3.526   5.525 -0.1371  0.2457 -1.4641
  522EMI    C1' 9908   0.107   3.099   5.590 -0.4647  0.0209  0.4791
  522EMI    H1' 9909   0.011   3.060   5.553  0.0930  0.6430  2.7968
  522EMI    H1' 9910   0.184   3.097   5.507  1.6888 -0.6006 -0.3338
  522EMI    H1' 9911   0.153   3.045   5.677  2.3125 -1.4100 -1.1269
  522EMI    C1" 9912   0.059   3.556   5.800 -0.4360 -0.0369 -0.4800
  522EMI    H1" 9913   0.035   3.524   5.898 -1.4117  2.1287 -1.7674
  522EMI    H1" 9914  -0.018   3.629   5.771  0.3980  2.0176 -0.1173
  522EMI    C2" 9915   0.201   3.618   5.791  0.1621  0.8186 -0.6194
  522EMI    H2" 9916   0.215   3.655   5.697  2.6464  0.9694 -1.3135
  522EMI    H2" 9917   0.207   3.693   5.865 -0.3388  3.5185  0.2134
  522EMI    H2" 9918   0.288   3.559   5.818 -0.1014 -1.9159  2.8368
  523EMI     N1 9919   2.043   4.986   6.589 -0.2681  0.5893 -0.5337
  523EMI     C2 9920   1.923   4.926   6.580 -0.4144  0.2649  0.8154
  523EMI     N3 9921   1.822   5.012   6.586  0.2456  0.1238  0.3926
  523EMI     C4 9922   1.885   5.135   6.603 -0.2971 -0.4539 -0.3468
  523EMI     C5 9923   2.018   5.116   6.613 -0.4186  0.2149 -0.1369
  523EMI     H2 9924   1.903   4.822   6.548  2.2687 -0.5883 -1.4654
  523EMI     H4 9925   1.837   5.231   6.619  1.3211  1.0308  1.2535
  523EMI     H5 9926   2.089   5.184   6.641 -1.9794 -0.5845 -0.0512
  523EMI    C1' 9927   1.682   4.990   6.566  1.1469  0.0225  0.2050
  523EMI    H1' 9928   1.658   4.887   6.589  1.7546  0.2327 -1.2119
  523EMI    H1' 9929   1.631   5.057   6.631  1.4042 -1.5488 -3.0808
  523EMI    H1' 9930   1.654   5.013   6.461 -1.4576  2.4859  0.6390
  523EMI    C1" 9931   2.176   4.934   6.567  0.2165  0.4030  0.2879
  523EMI    H1" 9932   2.236   5.001   6.492 -0.3542  1.4532  1.1203
  523EMI    H1" 9933   2.164   4.830   6.532 -0.8362 -1.0431  0.8428
  523EMI    C2" 9934   2.251   4.917   6.695  0.5098  0.2226  0.2900
  523EMI    H2" 9935   2.271   5.006   6.752  0.1984  2.2553  0.7402
  523EMI    H2" 9936   2.205   4.840   6.756 -0.5967  2.8087  0.5959
  523EMI    H2" 9937   2.347   4.872   6.674  1.6766 -0.4853  1.7848
  524EMI     N1 9938   4.557   3.168   5.970 -0.1764 -0.1005 -0.5221
  524EMI     C2 9939   4.679   3.233   5.965  0.1067  0.0666 -0.3410
  524EMI     N3 9940   4.701   3.265   5.836 -0.1717 -0.1357 -0.5136
  524EMI     C4 9941   4.591   3.236   5.762  0.0172 -0.4442  0.2807
  524EMI     C5 9942   4.500   3.184   5.841 -0.0842 -0.0907 -0.6897
  524EMI     H2 9943   4.742   3.250   6.050  1.2357  0.3862 -0.1984
  524EMI     H4 9944   4.572   3.256   5.661  0.4992 -2.7274 -0.6651
  524EMI     H5 9945   4.396   3.164   5.821  0.3972  0.8474  0.5860
  524EMI    C1' 9946   4.825   3.336   5.787 -0.6797  0.2648  0.6344
  524EMI    H1' 9947   4.838   3.330   5.680  2.7073  2.0880  0.3407
  524EMI    H1' 9948   4.799   3.437   5.801 -0.0978 -0.4886  0.8416
  524EMI    H1' 9949   4.909   3.301   5.845 -2.6394 -0.2548  0.6310
  524EMI    C1" 9950   4.485   3.101   6.078  0.3716  0.4741 -0.1208
  524EMI    H1" 9951   4.567   3.069   6.146  0.0902 -1.2068 -1.0218
  524EMI    H1" 9952   4.420   3.029   6.033 -1.0267  3.1716  1.5460
  524EMI    C2" 9953   4.391   3.205   6.149  0.5883 -0.2799  0.5679
  524EMI    H2" 9954   4.292   3.201   6.106  0.2379 -0.8488 -0.1169
  524EMI    H2" 9955   4.371   3.185   6.251 -1.1367 -1.0822 -1.7014
  524EMI    H2" 9956   4.444   3.303   6.152 -0.0059 -1.1079  1.6757
  525EMI     N1 9957   5.924   4.797   2.955 -0.4856  0.4564 -0.0139
  525EMI     C2 9958   5.810   4.855   2.998  0.2413  0.5446 -0.1840
  525EMI     N3 9959   5.776   4.956   2.912  1.1520 -0.0091 -0.9489
  525EMI     C4 9960   5.873   4.965   2.818  0.2144 -0.7949 -0.2327
  525EMI     C5 9961   5.965   4.870   2.842 -0.9930  0.2390  0.5222
  525EMI     H2 9962   5.751   4.833   3.088  2.0562 -0.9988  0.6532
  525EMI     H4 9963   5.869   5.049   2.747 -0.6620  0.0260 -1.1016
  525EMI     H5 9964   6.058   4.860   2.790 -1.2892  0.0703  1.0614
  525EMI    C1' 9965   5.663   5.049   2.925 -0.2033  0.6453 -0.0229
  525EMI    H1' 9966   5.651   5.098   2.824  0.5913  2.8330 -3.8116
  525EMI    H1' 9967   5.583   4.977   2.951 -0.4179 -2.6978  1.2185
  525EMI    H1' 9968   5.673   5.119   3.007 -0.8003 -0.5628  1.2263
  525EMI    C1" 9969   6.005   4.696   3.029  0.0962  0.4639 -0.0468
  525EMI    H1" 9970   5.979   4.685   3.140  2.6025 -0.0961  1.0262
  525EMI    H1" 9971   6.113   4.719   3.010  0.1289  0.7762  0.7600
  525EMI    C2" 9972   5.974   4.563   2.954  0.6819  0.0717 -0.3011
  525EMI    H2" 9973   5.867   4.531   2.970  2.0147  0.3040 -0.4008
  525EMI    H2" 9974   5.985   4.591   2.842 -0.8303 -0.5257 -0.6815
  525EMI    H2" 9975   6.049   4.492   2.985  0.5930  1.0633 -1.0662
  526EMI     N1 9976   1.304   5.401   4.365  0.1013 -0.4133 -0.4647
  526EMI     C2 9977   1.242   5.281   4.347 -0.1203  0.3722  0.0735
  526EMI     N3 9978   1.314   5.186   4.404 -0.2525  0.6447  0.1512
  526EMI     C4 9979   1.425   5.240   4.460 -0.9381  0.1459 -0.3734
  526EMI     C5 9980   1.418   5.374   4.437 -1.0472  0.6674 -0.5157
  526EMI     H2 9981   1.146   5.260   4.304  1.0093  2.6621  2.8057
  526EMI     H4 9982   1.502   5.187   4.513 -0.7533 -0.5496  1.8226
  526EMI     H5 9983   1.495   5.452   4.473  1.3060  1.6517 -0.9409
  526EMI    C1' 9984   1.286   5.041   4.424  0.4395 -0.8657  0.6268
  526EMI    H1' 9985   1.208   5.015   4.353  1.6691 -1.1503  1.2671
  526EMI    H1' 9986   1.371   4.984   4.395 -1.6650 -1.9057 -0.6271
  526EMI    H1' 9987   1.258   5.028   4.531  0.8503  0.0782  2.9652
  526EMI    C1" 9988   1.266   5.542   4.320 -0.4288  0.1926 -0.3650
  526EMI    H1" 9989   1.307   5.609   4.399 -0.7198  1.0099  0.1033
  526EMI    H1" 9990   1.162   5.548   4.300  1.2813 -2.5942 -1.7225
  526EMI    C2" 9991   1.345   5.572   4.196  0.0530 -0.0955 -0.5592
  526EMI    H2" 9992   1.325   5.677   4.178 -0.5724 -2.5236  0.0715
  526EMI    H2" 9993   1.455   5.564   4.218  0.4959  0.2526 -1.0393
  526EMI    H2" 9994   1.320   5.513   4.114 -0.8043  3.6263 -0.3912
  527EMI     N1 9995   6.263   5.894   4.643  0.0988  0.0934  0.6756
  527EMI     C2 9996   6.177   5.830   4.555 -0.3770 -0.6622 -0.6756
  527EMI     N3 9997   6.059   5.802   4.612  0.0762  0.3727  0.1348
  527EMI     C4 9998   6.067   5.853   4.739  0.4485 -0.6941  0.4695
  527EMI     C5 9999   6.190   5.914   4.758  0.1250  0.0834  0.1507
  527EMI     H210000   6.208   5.811   4.456  2.1980  0.4393  0.5027
  527EMI     H410001   5.982   5.860   4.802  1.5000  1.6470  2.4766
  527EMI     H510002   6.223   5.973   4.840  0.9578 -1.5977 -0.7840
  527EMI    C1'10003   5.938   5.741   4.551  0.5849  0.3367 -0.1303
  527EMI    H1'10004   5.959   5.636   4.516  0.0080  0.3336 -2.5105
  527EMI    H1'10005   5.845   5.742   4.618 -3.9406 -0.1498 -0.9826
  527EMI    H1'10006   5.918   5.793   4.453  0.8738 -0.9315 -0.3472
  527EMI    C1"10007   6.407   5.923   4.633 -0.5249 -0.4928  0.4084
  527EMI    H1"10008   6.440   5.933   4.535  1.7395  0.2005 -2.1494
  527EMI    H1"10009   6.463   5.841   4.683  1.4335 -0.3162 -2.3046
  527EMI    C2"10010   6.450   6.044   4.715 -0.0019  0.1689  0.1147
  527EMI    H2"10011   6.398   6.136   4.701 -0.8548 -1.3205  1.2825
  527EMI    H2"10012   6.442   6.014   4.817  3.1263  1.8022 -1.0277
  527EMI    H2"10013   6.557   6.053   4.705  1.6263  0.4473 -0.4054
  528EMI     N110014   0.195   0.396   0.171  0.3840 -0.3472  0.3629
  528EMI     C210015   0.240   0.476   0.270  0.4077 -0.6508 -0.0889
  528EMI     N310016   0.134   0.536   0.327 -0.0239  0.3719 -0.0565
  528EMI     C410017   0.023   0.511   0.252 -0.1999  0.0595  0.2578
  528EMI     C510018   0.063   0.425   0.155 -0.5475 -0.3614 -0.4763
  528EMI     H210019   0.343   0.496   0.297  1.4350 -1.4374 -1.6362
  528EMI     H410020  -0.074   0.552   0.261  0.2603 -0.6912  1.6986
  528EMI     H510021  -0.006   0.389   0.076 -2.4374 -2.4525  0.1990
  528EMI    C1'10022   0.119   0.640   0.430 -0.0323 -0.0100  0.5016
  528EMI    H1'10023   0.068   0.726   0.392  2.4812 -2.3554 -0.3707
  528EMI    H1'10024   0.059   0.615   0.516  2.0221 -1.9605 -0.1768
  528EMI    H1'10025   0.217   0.665   0.473 -3.2489 -0.7599  0.4180
  528EMI    C1"10026   0.269   0.310   0.080  0.3520  1.2223  0.3839
  528EMI    H1"10027   0.367   0.349   0.070 -2.0029  1.7809  0.9143
  528EMI    H1"10028   0.220   0.297  -0.017  0.6375  1.3580 -0.1783
  528EMI    C2"10029   0.286   0.170   0.146  0.2909 -0.2955  0.5037
  528EMI    H2"10030   0.197   0.130   0.178  2.4494 -1.3905  1.4203
  528EMI    H2"10031   0.331   0.097   0.080 -2.6061  0.1785 -1.6356
  528EMI    H2"10032   0.347   0.188   0.238  2.0318  3.2856 -2.3897
  529EMI     N110033   3.803   4.318   6.617 -0.5336  0.6455  0.0396
  529EMI     C210034   3.716   4.409   6.572 -0.0465 -0.3650 -0.6272
  529EMI     N310035   3.592   4.381   6.624 -0.7510  0.3886  0.6904
  529EMI     C410036   3.604   4.266   6.692 -0.7120  0.3304 -0.3489
  529EMI     C510037   3.735   4.229   6.690 -0.2240 -0.6986  0.3053
  529EMI     H210038   3.750   4.485   6.512  0.1494 -0.1874 -1.2677
  529EMI     H410039   3.524   4.211   6.750 -1.8443 -0.4454 -0.3748
  529EMI     H510040   3.772   4.137   6.742 -0.0606 -3.0658 -0.4350
  529EMI    C1'10041   3.465   4.448   6.603 -0.1528  0.0460 -0.2364
  529EMI    H1'10042   3.478   4.555   6.577  2.5062 -1.2614 -0.3503
  529EMI    H1'10043   3.420   4.407   6.516  1.5662 -0.1926  1.4954
  529EMI    H1'10044   3.396   4.430   6.683 -1.1473 -0.9868 -2.3435
  529EMI    C1"10045   3.947   4.302   6.596 -0.6278 -0.5838  0.3533
  529EMI    H1"10046   3.995   4.295   6.693  0.0951  0.2623 -0.1735
  529EMI    H1"10047   3.993   4.385   6.542  0.4384 -2.9806  0.3670
  529EMI    C2"10048   3.980   4.180   6.502  0.0472 -0.2582 -0.5481
  529EMI    H2"10049   3.928   4.090   6.537 -0.4200 -2.0205 -0.7176
  529EMI    H2"10050   3.961   4.205   6.403  2.4154  2.1590  0.6631
  529EMI    H2"10051   4.086   4.155   6.496 -0.1741 -0.7935 -1.5577
  530EMI     N110052   1.401   3.768   2.855 -0.1637  0.5173 -0.4209
  530EMI     C210053   1.493   3.726   2.943 -0.4232 -0.1482 -0.2871
  530EMI     N310054   1.603   3.803   2.935 -0.2391 -0.7061 -0.2012
  530EMI     C410055   1.578   3.905   2.845  0.0964 -0.7337 -0.4911
  530EMI     C510056   1.450   3.888   2.800  0.4702 -0.1535 -0.1853
  530EMI     H210057   1.502   3.639   3.010  1.9992  2.2389  0.2670
  530EMI     H410058   1.633   3.991   2.816  3.8701  0.0904 -1.5964
  530EMI     H510059   1.401   3.949   2.729 -2.4116 -0.9723  0.7255
  530EMI    C1'10060   1.725   3.787   3.013  0.8307  0.4180 -0.6267
  530EMI    H1'10061   1.763   3.685   2.998  0.4486  0.9669  2.3616
  530EMI    H1'10062   1.798   3.863   2.992  1.6468 -0.6328 -0.5132
  530EMI    H1'10063   1.702   3.805   3.121 -0.2802  0.7400  1.8314
  530EMI    C1"10064   1.271   3.709   2.811 -0.5055 -0.3083 -0.5979
  530EMI    H1"10065   1.273   3.605   2.836  1.2824 -0.5429 -0.5591
  530EMI    H1"10066   1.272   3.717   2.713  1.5306 -2.0580  1.7836
  530EMI    C2"10067   1.151   3.789   2.872 -0.3540  0.0699 -0.4190
  530EMI    H2"10068   1.146   3.890   2.840 -1.6151 -1.5116 -0.8619
  530EMI    H2"10069   1.066   3.740   2.834  0.2292 -0.0822  0.5413
  530EMI    H2"10070   1.149   3.794   2.983 -2.6213  0.5477 -0.0964
  531EMI     N110071   5.968   2.886   4.035 -0.8795  0.0903  0.0986
  531EMI     C210072   5.943   2.773   4.104 -0.5298 -0.0262 -0.4097
  531EMI     N310073   5.991   2.788   4.225  0.0287 -0.0293  0.3714
  531EMI     C410074   6.035   2.915   4.235 -0.7881  0.4605 -0.7765
  531EMI     C510075   6.025   2.977   4.119 -0.2410 -0.4672 -0.1562
  531EMI     H210076   5.883   2.691   4.069 -1.7567  1.0996 -0.2720
  531EMI     H410077   6.079   2.949   4.328 -0.6599  2.4143 -1.5630
  531EMI     H510078   6.061   3.075   4.086  0.9562 -0.0114  2.0725
  531EMI    C1'10079   6.013   2.681   4.321  0.3414 -0.7065  0.9013
  531EMI    H1'10080   6.109   2.683   4.369 -0.9457  0.2562 -2.0616
  531EMI    H1'10081   5.940   2.679   4.400 -0.1158 -3.0626  0.5723
  531EMI    H1'10082   6.015   2.586   4.263 -2.0076 -0.6594 -1.7689
  531EMI    C1"10083   5.932   2.919   3.896  0.6227  0.0333  0.0918
  531EMI    H1"10084   6.010   2.890   3.825  1.2113  1.9950 -1.2016
  531EMI    H1"10085   5.921   3.025   3.898  2.7096  0.5463  0.8528
  531EMI    C2"10086   5.797   2.859   3.853  0.0215 -0.2581  0.2855
  531EMI    H2"10087   5.716   2.905   3.909 -0.1223 -0.0634 -2.4950
  531EMI    H2"10088   5.774   2.867   3.748  2.8649 -1.4276 -0.0823
  531EMI    H2"10089   5.803   2.755   3.872  1.3971  1.7618 -1.4401
  532EMI     N110090   3.767   4.978   4.354  0.3476  0.2947  0.1757
  532EMI     C210091   3.708   5.090   4.317 -0.5015  0.0289 -0.5385
  532EMI     N310092   3.577   5.072   4.293  0.7848  0.1793  0.4132
  532EMI     C410093   3.551   4.936   4.307 -0.0554  0.5480  0.3131
  532EMI     C510094   3.672   4.883   4.348 -0.0710  0.6169 -0.0927
  532EMI     H210095   3.742   5.192   4.304  0.2660  0.6703  0.7853
  532EMI     H410096   3.452   4.896   4.293  0.3057 -0.0007 -1.7966
  532EMI     H510097   3.684   4.779   4.374 -0.7495  0.8666 -1.6621
  532EMI    C1'10098   3.478   5.169   4.271  0.2833 -0.2916 -0.1034
  532EMI    H1'10099   3.380   5.122   4.301 -0.5329 -0.6861 -1.6895
  532EMI    H1'10100   3.503   5.256   4.329  0.1604 -0.5614 -1.0123
  532EMI    H1'10101   3.475   5.191   4.163 -0.1597 -1.3788 -1.8721
  532EMI    C1"10102   3.899   4.945   4.406 -0.2250 -0.7096 -0.3651
  532EMI    H1"10103   3.974   4.995   4.344 -2.2605  5.0958  1.3196
  532EMI    H1"10104   3.903   4.842   4.373 -1.3693  1.6372 -0.7576
  532EMI    C2"10105   3.902   4.950   4.562 -0.2085  0.4331  0.3213
  532EMI    H2"10106   3.847   4.868   4.607 -3.0312  0.1254 -0.8206
  532EMI    H2"10107   4.002   4.936   4.588  1.1238  1.9468  2.5669
  532EMI    H2"10108   3.855   5.036   4.603  1.0565  2.0315  0.7916
  533EMI     N110109   2.265   2.382   1.821 -0.0460  0.2919  0.1510
  533EMI     C210110   2.224   2.278   1.896  0.5025  0.2194 -0.1807
  533EMI     N310111   2.323   2.191   1.916 -0.5862 -0.3816  0.5297
  533EMI     C410112   2.432   2.248   1.847  0.0098 -0.2697 -0.4332
  533EMI     C510113   2.396   2.364   1.798 -0.7493  0.9279 -0.4979
  533EMI     H210114   2.125   2.273   1.942  0.7181 -2.5079 -2.7587
  533EMI     H410115   2.533   2.215   1.834 -1.0468 -2.1273 -0.3897
  533EMI     H510116   2.459   2.430   1.737 -0.8573  1.3673 -0.2555
  533EMI    C1'10117   2.327   2.054   1.979  0.3522 -0.7476 -0.7361
  533EMI    H1'10118   2.428   2.026   2.014 -2.1599 -2.4039  0.6869
  533EMI    H1'10119   2.257   2.043   2.059 -1.2627 -0.0162  0.9645
  533EMI    H1'10120   2.305   1.987   1.898 -0.8931 -1.3586  0.4968
  533EMI    C1"10121   2.193   2.490   1.765  0.8434 -0.3964  0.8355
  533EMI    H1"10122   2.210   2.494   1.658  0.4625  1.9015 -1.4860
  533EMI    H1"10123   2.220   2.582   1.808  0.2616 -4.7909  0.2417
  533EMI    C2"10124   2.043   2.483   1.773  0.3690 -0.3744  0.0202
  533EMI    H2"10125   1.999   2.562   1.707 -0.3721 -1.9137  1.1307
  533EMI    H2"10126   1.997   2.386   1.741  0.1829 -3.8803  0.9247
  533EMI    H2"10127   2.009   2.495   1.874  1.9741 -1.6797  2.0437
  534EMI     N110128   1.322   6.721   3.585 -0.2972 -0.1190  0.0848
  534EMI     C210129   1.412   6.746   3.682  0.7396 -0.7049  0.1213
  534EMI     N310130   1.375   6.859   3.744 -0.3586 -0.4356 -0.6091
  534EMI     C410131   1.266   6.911   3.683  0.3277  0.2120 -0.2023
  534EMI     C510132   1.234   6.830   3.580 -0.1610  0.0206 -0.2257
  534EMI     H210133   1.504   6.694   3.705 -1.7295  0.4127 -0.1171
  534EMI     H410134   1.212   6.994   3.723  0.6955  0.4165 -0.5278
  534EMI     H510135   1.151   6.837   3.514  1.7447 -0.0882 -0.2324
  534EMI    C1'10136   1.441   6.932   3.857  0.1642 -0.3796 -0.1930
  534EMI    H1'10137   1.489   7.024   3.824  0.0697 -3.5566  1.6197
  534EMI    H1'10138   1.363   6.960   3.925 -1.2129  1.7162 -0.0366
  534EMI    H1'10139   1.516   6.863   3.901  1.7428 -0.9535 -0.6068
  534EMI    C1"10140   1.312   6.600   3.502 -0.4312  0.6823 -0.3598
  534EMI    H1"10141   1.221   6.542   3.522 -0.2954  2.8751 -0.5546
  534EMI    H1"10142   1.404   6.532   3.523  2.8711  1.2088  0.3271
  534EMI    C2"10143   1.314   6.648   3.357 -0.5182 -0.3875 -0.4118
  534EMI    H2"10144   1.392   6.725   3.352  1.0094  0.5106  0.4039
  534EMI    H2"10145   1.352   6.569   3.290 -2.0960 -2.0904  0.3986
  534EMI    H2"10146   1.214   6.680   3.322 -0.7234  1.7810  1.2211
  535EMI     N110147   1.400   4.970   0.867  0.3669 -0.3020 -0.1955
  535EMI     C210148   1.388   4.961   1.007 -0.4804 -0.2886  0.2941
  535EMI     N310149   1.507   4.926   1.059  0.0232 -0.1368  0.5686
  535EMI     C410150   1.599   4.920   0.950  0.2526  0.3990 -0.1718
  535EMI     C510151   1.532   4.948   0.836 -0.1288 -0.7188 -0.0695
  535EMI     H210152   1.302   4.984   1.062  0.7476  0.1705 -2.4079
  535EMI     H410153   1.702   4.892   0.957 -0.4645  0.0183  1.3236
  535EMI     H510154   1.576   4.955   0.739 -0.8622 -0.3594  2.9927
  535EMI    C1'10155   1.528   4.897   1.197 -0.0665 -0.0979 -0.4737
  535EMI    H1'10156   1.464   4.825   1.240  0.8444  0.0023  1.4595
  535EMI    H1'10157   1.634   4.859   1.212  3.7742 -0.8481 -0.9922
  535EMI    H1'10158   1.526   4.996   1.250  0.2715 -0.8521 -3.5686
  535EMI    C1"10159   1.294   5.007   0.770  0.0159  0.2414 -0.1825
  535EMI    H1"10160   1.202   5.015   0.829  2.8851  0.9339 -1.5153
  535EMI    H1"10161   1.288   4.930   0.696 -1.7536  1.1746 -0.2765
  535EMI    C2"10162   1.309   5.144   0.700 -0.2798 -0.8153 -0.4985
  535EMI    H2"10163   1.406   5.148   0.639  0.6153  0.8738  0.0818
  535EMI    H2"10164   1.223   5.157   0.638  2.3748  2.3468  0.3158
  535EMI    H2"10165   1.321   5.222   0.779  1.5126  1.8116  0.7659
  536EMI     N110166   6.362   1.013   4.349 -0.2307  0.2302  0.3506
  536EMI     C210167   6.413   0.929   4.442 -0.3149 -0.8425 -0.7404
  536EMI     N310168   6.316   0.873   4.511 -0.0862  0.6499 -0.1191
  536EMI     C410169   6.193   0.920   4.465 -0.3421  0.2635 -0.0022
  536EMI     C510170   6.227   0.994   4.356 -0.5855  0.1833  0.0405
  536EMI     H210171   6.522   0.920   4.469 -0.1063 -0.9320  1.8041
  536EMI     H410172   6.100   0.900   4.496  2.9976 -1.2907 -1.1874
  536EMI     H510173   6.164   1.046   4.284  0.1230 -0.5916  0.9391
  536EMI    C1'10174   6.322   0.803   4.636 -0.9183  0.1986  0.3046
  536EMI    H1'10175   6.418   0.787   4.672 -0.4687 -0.1136  1.9771
  536EMI    H1'10176   6.274   0.871   4.715  1.0560 -1.6165  0.0145
  536EMI    H1'10177   6.258   0.719   4.620 -0.0242  1.0175 -2.4901
  536EMI    C1"10178   6.423   1.095   4.238 -0.3160  0.8649 -0.0548
  536EMI    H1"10179   6.399   1.059   4.140  0.2373  1.9425  0.4857
  536EMI    H1"10180   6.529   1.087   4.249  1.3126  1.3443  1.1258
  536EMI    C2"10181   6.397   1.247   4.240 -0.7714  0.4408  0.4876
  536EMI    H2"10182   6.415   1.289   4.342 -1.7246 -1.0615  0.3475
  536EMI    H2"10183   6.445   1.302   4.163 -1.7751  0.6470  1.2027
  536EMI    H2"10184   6.292   1.252   4.230  0.8878  2.3890  1.5158
  537EMI     N110185   3.479   2.965   1.128 -0.3501  0.0899 -0.8152
  537EMI     C210186   3.355   2.934   1.165  0.2472 -0.1461 -0.4865
  537EMI     N310187   3.314   2.820   1.113 -0.6691  1.2113  0.1393
  537EMI     C410188   3.414   2.775   1.040 -0.5296  0.1157  0.5200
  537EMI     C510189   3.517   2.865   1.039 -0.0634  0.0101  0.4794
  537EMI     H210190   3.293   2.996   1.231 -0.2559 -2.6032  1.4685
  537EMI     H410191   3.415   2.689   0.981  1.3519 -0.0760 -1.9328
  537EMI     H510192   3.601   2.850   0.978 -1.8925 -0.0599 -0.6696
  537EMI    C1'10193   3.186   2.745   1.135 -0.9721 -0.1353  0.0846
  537EMI    H1'10194   3.127   2.776   1.051  0.7651 -2.3459  0.5894
  537EMI    H1'10195   3.202   2.638   1.128  2.9173  2.1152 -5.5254
  537EMI    H1'10196   3.145   2.775   1.232  0.9598 -1.2342 -1.4816
  537EMI    C1"10197   3.548   3.100   1.139  0.0773  0.2426  0.2706
  537EMI    H1"10198   3.652   3.103   1.095  2.2580 -1.8320 -0.9431
  537EMI    H1"10199   3.572   3.116   1.244 -1.2427  0.1813 -0.0690
  537EMI    C2"10200   3.460   3.209   1.091 -0.3517 -0.6149  0.1327
  537EMI    H2"10201   3.488   3.310   1.131 -1.0595  0.9108  3.3486
  537EMI    H2"10202   3.464   3.211   0.978  0.2377 -0.1983  1.3712
  537EMI    H2"10203   3.358   3.195   1.119 -0.2645  1.2621 -0.2353
  538EMI     N110204   1.695   5.783   3.087 -0.1889 -0.3087 -0.3708
  538EMI     C210205   1.812   5.739   3.044 -0.4228 -0.3180 -0.1317
  538EMI     N310206   1.913   5.768   3.127  0.4675  0.3285 -0.3882
  538EMI     C410207   1.855   5.828   3.239  0.7953 -0.3573  0.4182
  538EMI     C510208   1.721   5.834   3.218  0.3720 -0.3645  0.3347
  538EMI     H210209   1.832   5.691   2.955  1.1788 -0.1050  0.9542
  538EMI     H410210   1.921   5.865   3.314  2.2842  0.2220 -1.4593
  538EMI     H510211   1.652   5.882   3.288 -0.6363  0.1933  0.7347
  538EMI    C1'10212   2.056   5.761   3.109  0.6605  0.0423 -0.4619
  538EMI    H1'10213   2.087   5.835   3.034 -2.6342  0.1479  0.6035
  538EMI    H1'10214   2.104   5.774   3.210  0.5366  0.3602  0.8562
  538EMI    H1'10215   2.087   5.661   3.079 -1.5041 -1.3940 -0.4699
  538EMI    C1"10216   1.567   5.773   3.018  0.5642  0.3396  0.1024
  538EMI    H1"10217   1.546   5.672   3.004  0.9644  0.1943  1.7587
  538EMI    H1"10218   1.558   5.825   2.927 -2.4284 -0.5598 -0.4535
  538EMI    C2"10219   1.448   5.814   3.096  0.3384 -0.2244  0.6476
  538EMI    H2"10220   1.452   5.779   3.196  0.1259 -1.5509 -2.6427
  538EMI    H2"10221   1.454   5.918   3.097  3.3643 -1.7273  1.4610
  538EMI    H2"10222   1.360   5.772   3.051  1.3040 -3.6630 -0.3144
  539EMI     N110223   5.982   5.267   1.422  0.7895 -0.3513  0.3299
  539EMI     C210224   6.084   5.359   1.412  0.2284  0.1703  0.2303
  539EMI     N310225   6.128   5.371   1.281  0.1728  0.1605 -0.0725
  539EMI     C410226   6.056   5.280   1.210  0.4233  0.0788  0.3765
  539EMI     C510227   5.969   5.223   1.294 -0.1874 -0.2516 -0.0362
  539EMI     H210228   6.125   5.424   1.494  3.2114  1.0637 -0.8394
  539EMI     H410229   6.067   5.276   1.104 -0.1016  1.2610  0.5730
  539EMI     H510230   5.901   5.148   1.266  1.9917  1.7749  2.6829
  539EMI    C1'10231   6.224   5.462   1.216 -0.2066  0.0340 -0.0504
  539EMI    H1'10232   6.305   5.491   1.284  0.4028 -1.0628  1.2340
  539EMI    H1'10233   6.244   5.418   1.119 -0.2776  3.9621  0.6590
  539EMI    H1'10234   6.165   5.557   1.204 -0.8907  1.5435 -2.5745
  539EMI    C1"10235   5.886   5.233   1.522  0.7083 -0.5024 -0.5220
  539EMI    H1"10236   5.808   5.183   1.464  0.9960  0.4555 -2.2325
  539EMI    H1"10237   5.837   5.324   1.567 -0.3755  2.4054 -0.1123
  539EMI    C2"10238   5.951   5.149   1.630 -0.1294  0.2071  0.5731
  539EMI    H2"10239   5.999   5.058   1.580  1.0218 -0.3823 -0.2076
  539EMI    H2"10240   6.029   5.204   1.684 -2.5596  0.8505  0.0031
  539EMI    H2"10241   5.878   5.106   1.704  0.4997  0.4868  2.2047
  540EMI     N110242   3.368   0.979   4.005 -0.5900  0.5683 -0.1008
  540EMI     C210243   3.413   0.925   3.887 -0.1305  0.7636  0.0273
  540EMI     N310244   3.488   1.016   3.816 -0.3990 -0.0171  0.1131
  540EMI     C410245   3.494   1.128   3.896  0.4262 -0.5938 -0.5367
  540EMI     C510246   3.421   1.102   4.007  0.3604  0.1070  1.0135
  540EMI     H210247   3.387   0.825   3.846 -0.6931  2.0400  1.0032
  540EMI     H410248   3.541   1.220   3.880 -0.8809 -1.4294 -1.2083
  540EMI     H510249   3.396   1.181   4.077  3.3656 -0.8499 -0.1147
  540EMI    C1'10250   3.544   1.006   3.686 -0.5126  0.0294 -0.4509
  540EMI    H1'10251   3.479   1.051   3.615 -0.6362  1.1660 -2.4121
  540EMI    H1'10252   3.644   1.057   3.675  0.0593 -2.0267 -2.6342
  540EMI    H1'10253   3.546   0.903   3.656 -0.5035  0.6571 -0.9279
  540EMI    C1"10254   3.302   0.917   4.118  0.1476  0.6589 -0.9641
  540EMI    H1"10255   3.282   0.990   4.200  2.8111 -0.4631 -2.4616
  540EMI    H1"10256   3.362   0.840   4.158  0.5546 -2.5358  0.7530
  540EMI    C2"10257   3.170   0.855   4.075  0.5242  0.8477 -0.5121
  540EMI    H2"10258   3.103   0.934   4.044  0.7734 -0.6478 -0.5581
  540EMI    H2"10259   3.185   0.790   3.994 -1.0157 -1.1774  0.7993
  540EMI    H2"10260   3.132   0.787   4.150  2.5677  1.5474 -0.5022
  541EMI     N110261   1.852   6.226   6.303  0.0629 -0.0095 -0.1437
  541EMI     C210262   1.806   6.099   6.320 -0.2592 -0.1892 -0.1872
  541EMI     N310263   1.812   6.063   6.450  0.2219 -0.3300 -0.6286
  541EMI     C410264   1.867   6.169   6.520 -0.0923  0.5867  0.7978
  541EMI     C510265   1.894   6.269   6.430 -0.4763 -0.0053  0.3240
  541EMI     H210266   1.782   6.042   6.237  1.5980  1.2838  0.4187
  541EMI     H410267   1.893   6.170   6.621 -0.3625  0.3115  1.4775
  541EMI     H510268   1.947   6.359   6.441  0.6866 -1.8665  0.7794
  541EMI    C1'10269   1.771   5.944   6.511  0.4523 -0.2930  0.0049
  541EMI    H1'10270   1.685   5.900   6.459 -0.4000 -2.3988  1.3049
  541EMI    H1'10271   1.846   5.866   6.524  0.4910 -1.4343 -0.8119
  541EMI    H1'10272   1.742   5.979   6.612  0.8901  0.5985 -0.0951
  541EMI    C1"10273   1.860   6.309   6.185 -0.0589  0.7635  0.7926
  541EMI    H1"10274   1.859   6.243   6.100  0.6517  0.8968  1.4806
  541EMI    H1"10275   1.940   6.383   6.178  0.0011  2.2813  0.8714
  541EMI    C2"10276   1.737   6.394   6.196 -0.1625  0.3956 -0.2769
  541EMI    H2"10277   1.740   6.464   6.280 -0.2353 -0.2363  1.2585
  541EMI    H2"10278   1.732   6.460   6.109 -0.5204 -0.2928  0.6705
  541EMI    H2"10279   1.647   6.328   6.207 -0.9689 -2.4279  3.1353
  542EMI     N110280   1.739   2.992   3.952 -0.1604 -0.1698  0.1144
  542EMI     C210281   1.712   2.877   4.022  0.1686 -0.5542  0.5365
  542EMI     N310282   1.618   2.900   4.112  0.6192 -0.0874  0.6208
  542EMI     C410283   1.579   3.026   4.096 -0.0469 -0.3060 -0.4311
  542EMI     C510284   1.649   3.082   4.001 -0.3018  0.1277 -0.4826
  542EMI     H210285   1.753   2.780   4.002 -3.0114  0.8762  1.3523
  542EMI     H410286   1.494   3.068   4.144 -0.6548  0.0268  1.7727
  542EMI     H510287   1.637   3.181   3.967 -1.4151  0.1335 -1.0691
  542EMI    C1'10288   1.536   2.805   4.191 -0.0674 -0.7735  0.6857
  542EMI    H1'10289   1.477   2.749   4.119 -1.6456  3.3876  2.5691
  542EMI    H1'10290   1.591   2.739   4.264 -0.4272 -0.1662  1.6385
  542EMI    H1'10291   1.456   2.848   4.243  0.4588 -0.5597 -0.4701
  542EMI    C1"10292   1.830   3.009   3.837  0.4759 -0.3708 -0.0653
  542EMI    H1"10293   1.908   2.940   3.841 -1.7667  0.7795  3.9139
  542EMI    H1"10294   1.878   3.106   3.844 -2.8581  0.7019 -1.8245
  542EMI    C2"10295   1.748   3.000   3.706  0.2342  0.2022  0.5104
  542EMI    H2"10296   1.816   2.994   3.626 -0.5816  0.7175 -2.1361
  542EMI    H2"10297   1.692   2.912   3.696  1.1020  2.5251 -0.5374
  542EMI    H2"10298   1.690   3.089   3.693 -0.1237  1.1052 -1.5341
  543EMI     N110299   1.169   3.911   4.451  0.3293 -0.2509 -0.0915
  543EMI     C210300   1.215   3.924   4.327  0.4623  0.7515 -0.3002
  543EMI     N310301   1.105   3.927   4.247 -0.1458  0.3957 -0.4087
  543EMI     C410302   0.991   3.915   4.321 -0.2313 -0.1935  0.2886
  543EMI     C510303   1.030   3.910   4.445  0.1039  0.2596  0.6530
  543EMI     H210304   1.320   3.925   4.297  0.8673  2.9975 -1.9726
  543EMI     H410305   0.894   3.935   4.283 -0.3169  1.1378  3.0439
  543EMI     H510306   0.961   3.907   4.530  1.8791 -1.5048 -2.9204
  543EMI    C1'10307   1.094   3.936   4.102 -0.0544 -0.5980  0.6329
  543EMI    H1'10308   1.182   3.875   4.068 -1.8476  1.7698 -2.8216
  543EMI    H1'10309   1.013   3.880   4.060  1.0608 -0.9808 -0.5116
  543EMI    H1'10310   1.101   4.042   4.072  0.1495 -0.5256  1.8466
  543EMI    C1"10311   1.230   3.881   4.580 -0.1756  0.7862  0.0482
  543EMI    H1"10312   1.270   3.782   4.583 -0.8450  0.3743 -1.4323
  543EMI    H1"10313   1.151   3.900   4.652  1.6894 -2.0355 -1.1974
  543EMI    C2"10314   1.354   3.967   4.613  0.4343  0.3402 -0.4509
  543EMI    H2"10315   1.399   3.926   4.703  0.9610 -3.1994 -1.3591
  543EMI    H2"10316   1.441   3.970   4.544  0.3259  1.8719  0.2551
  543EMI    H2"10317   1.328   4.067   4.619  1.9084 -0.8405 -0.1706
  544EMI     N110318   5.477   6.479   6.418  0.3607 -0.7121 -0.5788
  544EMI     C210319   5.513   6.554   6.523  0.2271  0.0256  0.0973
  544EMI     N310320   5.497   6.682   6.498  0.2521 -0.0752  0.0504
  544EMI     C410321   5.473   6.690   6.363 -0.0268  0.3743  0.0499
  544EMI     C510322   5.454   6.564   6.317 -0.0901 -0.2477  0.0562
  544EMI     H210323   5.558   6.503   6.604 -1.0672 -1.1341 -3.2330
  544EMI     H410324   5.477   6.779   6.307  1.3743 -1.5278 -2.0679
  544EMI     H510325   5.432   6.536   6.212 -1.9841  0.0505 -0.7322
  544EMI    C1'10326   5.527   6.801   6.579 -0.1577  0.0122  0.1860
  544EMI    H1'10327   5.562   6.888   6.516  0.7272  2.0348 -0.6487
  544EMI    H1'10328   5.434   6.826   6.631 -2.3805  0.8976 -0.2704
  544EMI    H1'10329   5.598   6.775   6.653 -0.2912  1.5813 -0.1006
  544EMI    C1"10330   5.479   6.329   6.402  0.9215 -0.4514  0.1792
  544EMI    H1"10331   5.577   6.300   6.363 -0.1852 -0.3263 -0.5454
  544EMI    H1"10332   5.396   6.306   6.348  2.1855  0.0973 -1.0418
  544EMI    C2"10333   5.455   6.246   6.533  0.3712  0.2709  0.1175
  544EMI    H2"10334   5.550   6.237   6.579 -1.4102  1.7575  1.5866
  544EMI    H2"10335   5.382   6.301   6.591  2.6110 -1.6101  2.2353
  544EMI    H2"10336   5.412   6.147   6.520  1.1041  1.6516 -0.3088
  545EMI     N110337   5.852   1.491   6.054 -0.4070 -0.0425  0.0068
  545EMI     C210338   5.927   1.383   6.064 -0.1230  0.3198 -0.1012
  545EMI     N310339   5.855   1.273   6.039  0.2947 -0.1379 -0.1478
  545EMI     C410340   5.723   1.312   6.026 -0.5128 -0.2735 -0.2443
  545EMI     C510341   5.727   1.444   6.039 -0.0430  0.1400 -0.0751
  545EMI     H210342   6.041   1.388   6.065  2.9422  0.3537 -2.9280
  545EMI     H410343   5.637   1.249   6.002  0.9647  0.9535  1.7723
  545EMI     H510344   5.637   1.508   6.014 -2.1987  2.5260 -3.5390
  545EMI    C1'10345   5.909   1.138   6.024 -0.4568  0.1285  0.9013
  545EMI    H1'10346   6.005   1.141   5.967 -0.0860  0.6229  0.5958
  545EMI    H1'10347   5.938   1.095   6.124  1.7651  1.5585  0.8632
  545EMI    H1'10348   5.841   1.074   5.977 -1.7573  2.2138  0.5463
  545EMI    C1"10349   5.875   1.632   6.096  0.3973  0.8873  0.3758
  545EMI    H1"10350   5.930   1.623   6.194 -1.2423  2.1414  2.8262
  545EMI    H1"10351   5.781   1.675   6.110  0.0799  2.1451 -2.6757
  545EMI    C2"10352   5.954   1.712   5.993  0.0016 -0.4168  0.3485
  545EMI    H2"10353   6.063   1.680   5.983  1.4288  3.7941 -0.4520
  545EMI    H2"10354   5.912   1.709   5.892 -0.4000  1.0693 -0.6168
  545EMI    H2"10355   5.948   1.816   6.029  0.0645  0.8054 -1.9063
  546EMI     N110356   3.564   4.159   5.139  0.7965 -0.7939  0.2082
  546EMI     C210357   3.616   4.277   5.097  0.2759 -0.1766 -0.0884
  546EMI     N310358   3.583   4.309   4.972  0.2244  0.2027 -0.1872
  546EMI     C410359   3.521   4.199   4.922 -0.2338 -0.3243 -0.7463
  546EMI     C510360   3.514   4.103   5.021 -0.0520 -0.4402 -0.6964
  546EMI     H210361   3.659   4.347   5.166  1.2327  1.1047 -3.0301
  546EMI     H410362   3.475   4.188   4.818 -0.9170  2.6671 -0.1729
  546EMI     H510363   3.474   4.006   5.004  3.0716  1.6229 -1.5843
  546EMI    C1'10364   3.632   4.419   4.881  0.5672 -1.1420 -0.7227
  546EMI    H1'10365   3.628   4.514   4.938 -0.0307  3.6191  1.6727
  546EMI    H1'10366   3.732   4.392   4.847  0.8699  0.5300 -0.1832
  546EMI    H1'10367   3.559   4.433   4.799  1.7493 -0.6537 -0.6076
  546EMI    C1"10368   3.573   4.071   5.253 -0.0560 -0.2244 -0.0590
  546EMI    H1"10369   3.677   4.070   5.291 -0.5190 -1.3203  1.4776
  546EMI    H1"10370   3.547   3.972   5.211 -1.3141  2.5983 -3.2213
  546EMI    C2"10371   3.480   4.122   5.359 -0.0979  0.7834 -0.1072
  546EMI    H2"10372   3.376   4.126   5.328  0.4660  0.6553  1.9078
  546EMI    H2"10373   3.477   4.052   5.441 -1.1648 -3.8811 -0.7483
  546EMI    H2"10374   3.513   4.222   5.385 -0.8473  0.3796  4.7006
  547EMI     N110375   2.488   6.438   1.271 -0.3043  0.2717  0.2893
  547EMI     C210376   2.503   6.322   1.202 -0.1559  0.0808 -0.6793
  547EMI     N310377   2.461   6.335   1.073  0.5095  0.1249 -0.6879
  547EMI     C410378   2.417   6.463   1.059  0.1471  0.4968 -0.1284
  547EMI     C510379   2.435   6.529   1.176 -0.0097  0.0814 -0.2606
  547EMI     H210380   2.546   6.232   1.244 -0.5143  0.7261 -1.2429
  547EMI     H410381   2.361   6.503   0.978 -0.2709 -2.2787 -2.8039
  547EMI     H510382   2.411   6.634   1.198 -2.0949  2.1437 -1.8517
  547EMI    C1'10383   2.439   6.238   0.970 -0.6028  0.5134  0.3569
  547EMI    H1'10384   2.531   6.180   0.942 -0.0028  0.8986 -3.4659
  547EMI    H1'10385   2.368   6.163   1.004  1.0863  3.1650 -0.0961
  547EMI    H1'10386   2.414   6.294   0.877  0.1615  2.9464  0.5271
  547EMI    C1"10387   2.516   6.472   1.410  0.5914 -0.2127  0.2182
  547EMI    H1"10388   2.530   6.388   1.474  1.6808  0.7735  1.0438
  547EMI    H1"10389   2.430   6.520   1.453 -0.3269 -2.0053 -0.4198
  547EMI    C2"10390   2.638   6.569   1.424  0.1328 -0.1523  0.2683
  547EMI    H2"10391   2.617   6.653   1.360  0.5283  0.5795  0.4963
  547EMI    H2"10392   2.625   6.605   1.528 -0.3032 -0.3513 -0.1168
  547EMI    H2"10393   2.724   6.509   1.405  2.0578 -1.2829  2.0412
  548EMI     N110394   6.586   5.322   6.758 -0.5566 -0.0053 -0.2043
  548EMI     C210395   6.691   5.386   6.815  0.5384  0.6952  0.3856
  548EMI     N310396   6.751   5.467   6.727  0.2339 -0.1241  0.1655
  548EMI     C410397   6.669   5.463   6.612 -0.2906 -0.0165 -0.5270
  548EMI     C510398   6.575   5.369   6.630  0.3028  0.6998  0.7493
  548EMI     H210399   6.722   5.360   6.906  1.5166  0.7474 -5.0642
  548EMI     H410400   6.682   5.515   6.522 -0.2386  0.6805 -1.4596
  548EMI     H510401   6.506   5.340   6.562 -1.9591  2.0248  2.6490
  548EMI    C1'10402   6.849   5.569   6.753 -0.3083  0.2681 -0.2520
  548EMI    H1'10403   6.817   5.678   6.753  0.1864  0.4241 -1.0979
  548EMI    H1'10404   6.883   5.554   6.856  1.6369 -2.1769  1.1501
  548EMI    H1'10405   6.943   5.558   6.696 -1.1083  0.2125  0.0380
  548EMI    C1"10406   6.492   5.217   6.811  0.7045 -0.1148 -1.3464
  548EMI    H1"10407   6.394   5.235   6.761 -1.6846  1.6665 -1.0689
  548EMI    H1"10408   6.479   5.227   6.921 -0.7544 -2.3133  1.1239
  548EMI    C2"10409   6.559   5.078   6.795  0.2014  0.3831 -0.3419
  548EMI    H2"10410   6.492   5.002   6.832 -0.9454  2.7408  0.2652
  548EMI    H2"10411   6.594   5.063   6.696  2.4080 -1.8005  1.6394
  548EMI    H2"10412   6.653   5.070   6.850  1.9765  0.1544 -2.0359
  549EMI     N110413   0.361   4.737   6.428  0.2713  0.7250 -0.1068
  549EMI     C210414   0.251   4.683   6.379 -0.6734 -0.0189 -0.8811
  549EMI     N310415   0.273   4.561   6.329  0.5065  0.1439  0.0735
  549EMI     C410416   0.410   4.540   6.342  0.9024  0.3291  1.4340
  549EMI     C510417   0.461   4.653   6.397  0.1831  0.5801  0.3837
  549EMI     H210418   0.155   4.733   6.389  1.6836  1.1425  1.8285
  549EMI     H410419   0.466   4.451   6.315  1.8530  1.3085  0.8081
  549EMI     H510420   0.568   4.668   6.429  2.9563  1.4266  1.5401
  549EMI    C1'10421   0.181   4.459   6.271  0.4259 -0.2639 -0.0719
  549EMI    H1'10422   0.122   4.501   6.188  0.3944  0.6040  0.2989
  549EMI    H1'10423   0.234   4.367   6.253  0.2074 -2.0220  0.0633
  549EMI    H1'10424   0.110   4.424   6.341  2.4409  0.8085  0.1015
  549EMI    C1"10425   0.382   4.855   6.517  0.3142 -0.3346  0.3711
  549EMI    H1"10426   0.480   4.861   6.563 -1.3125 -0.6022  3.0117
  549EMI    H1"10427   0.306   4.855   6.596 -0.4848 -1.9350  2.0252
  549EMI    C2"10428   0.366   4.989   6.443  0.1577 -0.6553  0.4424
  549EMI    H2"10429   0.443   4.995   6.376 -1.9269 -1.4691 -2.1702
  549EMI    H2"10430   0.275   4.979   6.399  0.2305  2.2169  3.4972
  549EMI    H2"10431   0.359   5.065   6.520 -0.6508 -1.7635 -3.3378
  550EMI     N110432   0.530   2.087   2.927  0.5149 -0.0077 -0.4325
  550EMI     C210433   0.426   2.114   2.850 -0.2638  0.6036  0.0997
  550EMI     N310434   0.332   2.173   2.929 -0.0040  0.7203  0.0765
  550EMI     C410435   0.376   2.182   3.057 -0.0690  0.0981 -0.1679
  550EMI     C510436   0.504   2.138   3.051 -0.7092  0.3909  0.1997
  550EMI     H210437   0.421   2.089   2.743 -1.0812  0.4785 -0.5527
  550EMI     H410438   0.319   2.228   3.131 -0.3742 -2.2641 -3.5225
  550EMI     H510439   0.574   2.141   3.140  0.8753  0.7204 -1.6553
  550EMI    C1'10440   0.197   2.215   2.883 -0.8646  0.2645  0.1805
  550EMI    H1'10441   0.169   2.153   2.803 -0.1324 -0.3318  0.1970
  550EMI    H1'10442   0.117   2.189   2.953 -2.4137  1.0927  0.5922
  550EMI    H1'10443   0.185   2.320   2.856 -2.6100  2.8009 -0.4131
  550EMI    C1"10444   0.669   2.038   2.885 -0.4931  0.1773  0.1256
  550EMI    H1"10445   0.665   1.956   2.817  0.1180 -0.1320 -0.3232
  550EMI    H1"10446   0.716   2.006   2.976 -0.5362  1.8542 -1.8750
  550EMI    C2"10447   0.753   2.141   2.816  0.1174 -0.6537 -0.0104
  550EMI    H2"10448   0.701   2.183   2.732  0.0549  0.2374 -2.2943
  550EMI    H2"10449   0.748   2.225   2.885  0.3885 -0.9019  0.4913
  550EMI    H2"10450   0.848   2.101   2.788 -1.8383 -0.7864 -1.1995
  551EMI     N110451   2.063   5.504   6.710 -0.1580  0.2209  0.2461
  551EMI     C210452   1.934   5.522   6.701  0.2995 -0.4768 -0.7589
  551EMI     N310453   1.881   5.490   6.579 -0.7793 -0.2455  0.1257
  551EMI     C410454   1.995   5.448   6.506 -0.5151  0.3346  0.3703
  551EMI     C510455   2.105   5.452   6.583 -0.2409 -0.0186 -0.6563
  551EMI     H210456   1.874   5.565   6.781 -2.1786  0.4598 -1.9762
  551EMI     H410457   1.989   5.405   6.409 -4.0308  1.1800  2.1651
  551EMI     H510458   2.208   5.425   6.549 -0.2815 -0.4786 -2.7078
  551EMI    C1'10459   1.743   5.468   6.539 -0.0812  0.4451 -0.4457
  551EMI    H1'10460   1.729   5.516   6.444  0.1033 -0.3028  1.4223
  551EMI    H1'10461   1.732   5.365   6.517 -2.5793 -2.5861  0.1393
  551EMI    H1'10462   1.672   5.513   6.612 -0.6462 -0.2520 -0.6556
  551EMI    C1"10463   2.164   5.544   6.811 -0.3199 -0.2260  0.1310
  551EMI    H1"10464   2.197   5.640   6.777  0.3904 -0.4377 -0.7157
  551EMI    H1"10465   2.251   5.474   6.820  0.2348  1.2872  1.2143
  551EMI    C2"10466   2.115   5.547   6.958 -0.1744 -1.0068 -0.6010
  551EMI    H2"10467   2.195   5.586   7.018 -0.7099 -0.9438  1.4140
  551EMI    H2"10468   2.026   5.616   6.973 -0.4628  1.8501 -0.0062
  551EMI    H2"10469   2.081   5.450   6.994  0.2567 -2.1068 -0.6603
  552EMI     N110470   1.439   1.302   5.519  0.2248 -0.6065  0.0569
  552EMI     C210471   1.405   1.420   5.470  0.3618  0.5087  0.1337
  552EMI     N310472   1.514   1.485   5.431 -0.4043  0.4027  0.0972
  552EMI     C410473   1.624   1.398   5.463 -0.2957 -0.2971  0.1091
  552EMI     C510474   1.577   1.288   5.520 -0.1266  0.4035 -0.6548
  552EMI     H210475   1.306   1.470   5.462 -0.0693  0.6212  2.5411
  552EMI     H410476   1.730   1.416   5.448  0.3809 -0.0714  0.8303
  552EMI     H510477   1.630   1.210   5.566  0.3301  1.6900  0.3627
  552EMI    C1'10478   1.528   1.616   5.367  0.5569 -0.1923  0.0741
  552EMI    H1'10479   1.432   1.662   5.405 -0.4117 -1.7430 -3.0938
  552EMI    H1'10480   1.610   1.670   5.415  0.7930  0.8744  2.9538
  552EMI    H1'10481   1.543   1.607   5.253 -0.3369  0.3404  0.2640
  552EMI    C1"10482   1.351   1.190   5.556 -0.0255 -0.1149  0.8115
  552EMI    H1"10483   1.399   1.096   5.529 -0.0086 -0.5888  1.7268
  552EMI    H1"10484   1.251   1.191   5.505  1.8816 -0.5297 -1.0351
  552EMI    C2"10485   1.337   1.206   5.703 -0.0440 -0.5139 -0.2337
  552EMI    H2"10486   1.298   1.110   5.748  2.3417 -1.1022 -1.3457
  552EMI    H2"10487   1.428   1.220   5.768  2.7368  2.5324  2.3403
  552EMI    H2"10488   1.264   1.287   5.724  1.1602  0.6009  2.0554
  553EMI     N110489   5.198   2.553   4.128 -0.0526 -0.1010  0.2598
  553EMI     C210490   5.161   2.421   4.131 -0.3159 -0.5744  0.2898
  553EMI     N310491   5.178   2.362   4.010  0.2478 -0.1121  0.6466
  553EMI     C410492   5.234   2.455   3.929 -0.5298 -0.6155 -0.1247
  553EMI     C510493   5.238   2.573   3.996  0.8693  0.4486 -0.5226
  553EMI     H210494   5.127   2.368   4.216  1.8267 -0.3915  0.7937
  553EMI     H410495   5.280   2.444   3.832  1.7914  2.0191  0.7296
  553EMI     H510496   5.275   2.664   3.958  2.1468 -3.3295  1.3878
  553EMI    C1'10497   5.155   2.226   3.955 -0.0094 -0.2512 -0.5712
  553EMI    H1'10498   5.224   2.208   3.879  1.4867  0.1962 -0.4655
  553EMI    H1'10499   5.177   2.158   4.038 -0.9526  0.4832 -1.1594
  553EMI    H1'10500   5.049   2.216   3.920 -0.9623 -0.2628 -2.0390
  553EMI    C1"10501   5.198   2.663   4.223  0.2042 -0.5952 -0.4133
  553EMI    H1"10502   5.232   2.750   4.179 -1.1954  1.9428 -2.9503
  553EMI    H1"10503   5.262   2.644   4.308 -1.5161  0.5777  1.9700
  553EMI    C2"10504   5.059   2.681   4.275  0.4498  0.2253  0.0409
  553EMI    H2"10505   5.002   2.594   4.300  0.0552 -0.8359 -0.2697
  553EMI    H2"10506   5.067   2.748   4.353  0.2492 -2.7900  1.0702
  553EMI    H2"10507   4.993   2.718   4.197  0.9667 -2.8936 -1.0875
  554EMI     N110508   3.456   0.090   2.638 -0.2856  0.5850 -0.0686
  554EMI     C210509   3.444  -0.042   2.658 -0.2559  0.2269  0.6375
  554EMI     N310510   3.559  -0.103   2.653  0.0409  0.3883 -0.3648
  554EMI     C410511   3.650  -0.006   2.624  0.1263  0.5372  0.1535
  554EMI     C510512   3.582   0.111   2.610 -0.2370 -0.9525 -0.3084
  554EMI     H210513   3.350  -0.090   2.682 -0.1914  0.0775 -2.4108
  554EMI     H410514   3.758  -0.012   2.615  2.1290 -0.8441 -1.3444
  554EMI     H510515   3.634   0.203   2.588  0.3348  0.3710 -0.6096
  554EMI    C1'10516   3.597  -0.238   2.698  0.1255 -0.2831  0.3608
  554EMI    H1'10517   3.536  -0.264   2.784 -0.6498 -1.2026  1.5476
  554EMI    H1'10518   3.565  -0.305   2.619  1.2064 -0.0222  3.8836
  554EMI    H1'10519   3.707  -0.246   2.731  1.5220 -1.3045  0.5165
  554EMI    C1"10520   3.349   0.188   2.636 -0.3691  0.4445  0.7339
  554EMI    H1"10521   3.261   0.146   2.591  0.2612 -0.4442 -0.4925
  554EMI    H1"10522   3.392   0.272   2.575  1.1637 -1.1359  1.6463
  554EMI    C2"10523   3.306   0.239   2.768 -0.0342  0.5549 -0.1120
  554EMI    H2"10524   3.260   0.155   2.821 -1.2135 -2.2966  0.2255
  554EMI    H2"10525   3.397   0.269   2.817  0.6313  1.8295  0.6571
  554EMI    H2"10526   3.234   0.322   2.767  1.4127 -0.8905 -0.5609
  555EMI     N110527   5.904   4.963   4.646 -0.3827  0.0939 -0.2030
  555EMI     C210528   5.994   5.012   4.558  0.0081  0.5587 -0.0544
  555EMI     N310529   5.953   4.983   4.433  0.1813 -0.1355  0.7334
  555EMI     C410530   5.825   4.927   4.441 -0.1913  0.4297 -0.4894
  555EMI     C510531   5.803   4.912   4.572  0.1217  0.6605 -0.0667
  555EMI     H210532   6.084   5.067   4.579 -3.2544  0.7110 -2.0899
  555EMI     H410533   5.756   4.900   4.360  0.5587  2.0930 -0.7588
  555EMI     H510534   5.723   4.867   4.628  2.4809 -0.7755 -2.9394
  555EMI    C1'10535   6.009   5.012   4.302  0.1741 -0.3676 -0.1200
  555EMI    H1'10536   6.067   5.102   4.317 -1.5215 -0.9273  0.1542
  555EMI    H1'10537   6.074   4.927   4.263  0.1790 -0.7114  1.3516
  555EMI    H1'10538   5.921   5.031   4.241  0.1872  0.0574  0.9284
  555EMI    C1"10539   5.917   4.966   4.798  0.3587 -0.2756 -0.0162
  555EMI    H1"10540   6.016   4.939   4.827  2.1907  3.5391 -0.1820
  555EMI    H1"10541   5.860   4.888   4.843 -0.4160 -1.7530 -3.4733
  555EMI    C2"10542   5.879   5.108   4.841 -0.2143  0.1015 -0.8221
  555EMI    H2"10543   5.928   5.176   4.779  0.6719  1.2936  1.0957
  555EMI    H2"10544   5.778   5.121   4.832  3.3311  1.0976 -0.8911
  555EMI    H2"10545   5.914   5.119   4.946  0.3425  1.0788 -1.0187
  556EMI     N110546   5.741   2.411   1.525  0.2597 -0.1754  0.2898
  556EMI     C210547   5.751   2.538   1.567 -0.2980  0.2408 -0.2397
  556EMI     N310548   5.689   2.541   1.686  0.5553  0.0708  0.4306
  556EMI     C410549   5.620   2.424   1.703  0.0287 -0.4450 -0.5404
  556EMI     C510550   5.652   2.342   1.603  0.6809 -0.4517 -0.1311
  556EMI     H210551   5.807   2.617   1.512  0.9230 -0.8024 -0.8662
  556EMI     H410552   5.538   2.420   1.774 -0.7010  1.3644  1.0136
  556EMI     H510553   5.616   2.239   1.580  1.8213 -2.0358 -2.8591
  556EMI    C1'10554   5.660   2.658   1.772  0.1914 -0.3652  1.0257
  556EMI    H1'10555   5.744   2.693   1.828 -0.9743  0.7161  0.8835
  556EMI    H1'10556   5.632   2.736   1.705  0.8172 -0.1068 -2.8217
  556EMI    H1'10557   5.583   2.634   1.839  0.1607 -0.5998  0.8252
  556EMI    C1"10558   5.805   2.344   1.414  0.0681 -0.6616 -0.6953
  556EMI    H1"10559   5.756   2.251   1.394 -0.3057 -0.8226 -0.5216
  556EMI    H1"10560   5.908   2.321   1.447  4.2540  0.0211 -1.0109
  556EMI    C2"10561   5.798   2.440   1.293  0.6916 -0.2893  0.6856
  556EMI    H2"10562   5.858   2.530   1.317 -0.0115  1.4919  1.8792
  556EMI    H2"10563   5.841   2.405   1.195  0.0841 -0.6956  0.1478
  556EMI    H2"10564   5.688   2.468   1.279  0.2217  0.4379 -1.3709
  557EMI     N110565   1.485   3.665   6.500 -0.3259 -0.0759 -0.9272
  557EMI     C210566   1.352   3.681   6.506 -0.8955 -0.3905  0.5089
  557EMI     N310567   1.316   3.727   6.629 -0.2679  0.3418  0.1551
  557EMI     C410568   1.429   3.745   6.698 -0.1399 -0.0199 -0.0370
  557EMI     C510569   1.536   3.717   6.621 -0.1934 -0.3570 -0.3800
  557EMI     H210570   1.281   3.663   6.426  0.0607  1.4726  0.5454
  557EMI     H410571   1.449   3.775   6.803  0.3990 -0.6582 -2.2185
  557EMI     H510572   1.646   3.715   6.644 -0.8004 -1.5441 -0.1712
  557EMI    C1'10573   1.187   3.713   6.706  0.7132 -0.2324  0.5548
  557EMI    H1'10574   1.176   3.776   6.800 -1.0760  2.8572  2.6163
  557EMI    H1'10575   1.108   3.734   6.636  0.9977 -0.8295 -0.9004
  557EMI    H1'10576   1.165   3.612   6.739 -2.5762 -0.7645 -2.1850
  557EMI    C1"10577   1.573   3.619   6.391  0.3423  0.2934 -0.0783
  557EMI    H1"10578   1.661   3.681   6.374  0.3372 -0.3571  0.1546
  557EMI    H1"10579   1.511   3.621   6.295 -0.6579 -0.2916 -0.8970
  557EMI    C2"10580   1.627   3.476   6.405  0.4557  0.7383 -1.1483
  557EMI    H2"10581   1.687   3.465   6.490 -2.0846  0.0265  0.2051
  557EMI    H2"10582   1.549   3.400   6.409  1.0511  1.5475  1.0765
  557EMI    H2"10583   1.690   3.460   6.322  0.8888  3.4826 -0.1319
  558EMI     N110584   2.607   1.158   6.692  0.7467 -0.2902 -0.1837
  558EMI     C210585   2.519   1.257   6.689  0.2785 -0.4057 -0.3969
  558EMI     N310586   2.438   1.241   6.797 -0.7626  0.3476  0.0381
  558EMI     C410587   2.469   1.127   6.862  0.0186  0.0437 -0.3620
  558EMI     C510588   2.575   1.075   6.792  0.0861 -0.0351  0.3179
  558EMI     H210589   2.530   1.349   6.625  0.4841  1.7126 -1.8017
  558EMI     H410590   2.417   1.084   6.946  3.5147  3.5326 -2.0122
  558EMI     H510591   2.632   0.984   6.816  0.5031 -0.4980  2.5110
  558EMI    C1'10592   2.318   1.314   6.843 -0.6046  0.4024  0.5788
  558EMI    H1'10593   2.253   1.341   6.757 -3.2614 -0.6334  0.0694
  558EMI    H1'10594   2.262   1.250   6.914  1.5157 -2.8453  2.2972
  558EMI    H1'10595   2.341   1.400   6.892  0.2265 -1.5987  2.7537
  558EMI    C1"10596   2.717   1.113   6.608 -0.1587 -0.4333  1.0129
  558EMI    H1"10597   2.711   1.172   6.516  1.3363 -0.4466  1.6497
  558EMI    H1"10598   2.707   1.002   6.597 -3.5317 -0.2072 -1.0125
  558EMI    C2"10599   2.841   1.153   6.683  0.7102  0.1330 -0.0110
  558EMI    H2"10600   2.848   1.100   6.776  0.0889  2.2266  1.9366
  558EMI    H2"10601   2.929   1.126   6.622  1.1432 -3.0139 -0.2573
  558EMI    H2"10602   2.838   1.262   6.706  0.5482  0.4615 -0.3543
  559EMI     N110603   0.419   0.388   5.008  0.0634 -0.5497  0.2060
  559EMI     C210604   0.463   0.265   5.046  0.1571  0.0186  0.0547
  559EMI     N310605   0.484   0.186   4.937  0.4722 -0.7730 -0.4417
  559EMI     C410606   0.449   0.259   4.826 -0.2768  0.7820  0.2800
  559EMI     C510607   0.402   0.380   4.868 -0.5085  0.2610 -0.2252
  559EMI     H210608   0.506   0.248   5.146  0.5235 -4.1207  1.5906
  559EMI     H410609   0.443   0.209   4.727 -1.4958  1.3347 -0.3207
  559EMI     H510610   0.374   0.451   4.799 -1.3058 -1.6048 -0.0274
  559EMI    C1'10611   0.525   0.042   4.932 -0.1829 -0.2111  0.6263
  559EMI    H1'10612   0.459  -0.021   4.988  0.4151  1.9489 -1.3557
  559EMI    H1'10613   0.533   0.014   4.831  1.0628  1.7636  1.4659
  559EMI    H1'10614   0.632   0.035   4.966 -1.3166 -1.0853  0.2350
  559EMI    C1"10615   0.397   0.505   5.084  0.2533  0.4821 -0.9351
  559EMI    H1"10616   0.306   0.501   5.146 -2.8564 -0.7209 -1.2273
  559EMI    H1"10617   0.379   0.583   5.011  1.8040  4.8207  0.1408
  559EMI    C2"10618   0.527   0.544   5.154 -0.3992  0.4587 -0.0931
  559EMI    H2"10619   0.602   0.584   5.079 -0.8188 -0.3613  4.2554
  559EMI    H2"10620   0.507   0.616   5.240 -0.1076 -3.4779  1.8988
  559EMI    H2"10621   0.576   0.462   5.215  2.0323  1.8947  2.5877
  560EMI     N110622   5.452   6.217   1.164 -0.0010 -0.4563 -0.1211
  560EMI     C210623   5.394   6.340   1.185  0.0896 -0.3632  0.3558
  560EMI     N310624   5.323   6.375   1.076  0.0084  0.4542  0.4476
  560EMI     C410625   5.349   6.277   0.979 -0.1166  0.2539  0.1938
  560EMI     C510626   5.424   6.180   1.033 -0.2219  0.6322  0.3761
  560EMI     H210627   5.406   6.385   1.283 -1.4394 -0.5729 -1.2031
  560EMI     H410628   5.331   6.278   0.873  1.6055  0.2260  2.1162
  560EMI     H510629   5.452   6.086   0.992  1.7927  0.2134  2.4739
  560EMI    C1'10630   5.246   6.504   1.056 -0.3579 -0.4019  0.1165
  560EMI    H1'10631   5.155   6.492   0.995 -2.1832  0.0754 -1.1834
  560EMI    H1'10632   5.223   6.548   1.155 -1.6978 -1.4546 -1.7132
  560EMI    H1'10633   5.315   6.579   1.001 -0.0408  1.4408 -2.9759
  560EMI    C1"10634   5.524   6.133   1.262  0.9726  0.1030  0.6629
  560EMI    H1"10635   5.458   6.058   1.302 -4.2213 -1.0674  3.6359
  560EMI    H1"10636   5.560   6.201   1.339  0.7917 -2.3348 -3.3122
  560EMI    C2"10637   5.646   6.062   1.189 -0.2001  0.1350 -0.1779
  560EMI    H2"10638   5.703   5.992   1.260  3.5521 -0.9441 -1.2225
  560EMI    H2"10639   5.605   6.000   1.105  0.6613 -0.2246 -2.7438
  560EMI    H2"10640   5.707   6.125   1.133 -1.5768 -2.9656 -2.5604
  561EMI     N110641   5.925   1.101   4.786 -0.3066 -0.2716 -0.2016
  561EMI     C210642   5.988   1.021   4.882  0.2503 -0.0878 -0.1819
  561EMI     N310643   6.057   1.096   4.960 -0.1526 -0.3641 -0.0840
  561EMI     C410644   6.042   1.226   4.920 -1.1665 -0.1559 -0.9532
  561EMI     C510645   5.977   1.230   4.802  0.9559  0.3112 -0.1460
  561EMI     H210646   5.987   0.915   4.882 -0.3707  0.7418  1.2965
  561EMI     H410647   6.073   1.315   4.977 -1.0640  0.5317 -0.1980
  561EMI     H510648   5.945   1.323   4.742 -2.2309  1.2261 -1.4490
  561EMI    C1'10649   6.147   1.064   5.074 -0.2879 -0.3315 -0.2294
  561EMI    H1'10650   6.097   1.068   5.172  2.1376  0.9740  0.3369
  561EMI    H1'10651   6.191   0.965   5.063  2.5019 -0.4952 -1.2659
  561EMI    H1'10652   6.218   1.145   5.084  0.8494  1.4838 -1.3292
  561EMI    C1"10653   5.824   1.076   4.680 -0.3097  0.3540  0.0468
  561EMI    H1"10654   5.832   0.981   4.634 -0.5604 -1.3338  1.3690
  561EMI    H1"10655   5.832   1.149   4.605 -1.4088 -1.5080  0.3480
  561EMI    C2"10656   5.681   1.089   4.729  0.3721 -0.0467  0.5185
  561EMI    H2"10657   5.641   1.185   4.709 -1.2587 -0.9059  0.9779
  561EMI    H2"10658   5.623   1.016   4.670 -3.1622 -1.0315 -0.1264
  561EMI    H2"10659   5.667   1.066   4.836 -0.3284  1.7806 -1.6652
  562EMI     N110660   0.184   0.525   6.234  0.6837  0.3046  0.0547
  562EMI     C210661   0.134   0.602   6.334  0.1365  0.1553 -0.0217
  562EMI     N310662   0.144   0.537   6.447 -0.3115  1.0788 -0.0638
  562EMI     C410663   0.180   0.407   6.414 -0.2030  0.6721 -0.1065
  562EMI     C510664   0.215   0.402   6.284  0.0338 -0.2759  0.6183
  562EMI     H210665   0.114   0.710   6.328  2.3681  0.0242 -1.6591
  562EMI     H410666   0.185   0.320   6.483  0.3656 -1.6278  0.3123
  562EMI     H510667   0.268   0.323   6.234  0.3512  0.2794 -3.0680
  562EMI    C1'10668   0.129   0.586   6.587 -0.5325 -0.3930  0.1022
  562EMI    H1'10669   0.142   0.699   6.580  1.2697 -1.4867  3.2455
  562EMI    H1'10670   0.046   0.554   6.639 -0.6837 -0.3926  0.6455
  562EMI    H1'10671   0.206   0.549   6.649 -1.7878 -0.4881  3.0410
  562EMI    C1"10672   0.216   0.563   6.095 -0.0448 -0.1584  0.8011
  562EMI    H1"10673   0.123   0.606   6.049  0.4833  0.7357 -3.1799
  562EMI    H1"10674   0.262   0.474   6.050 -1.7210  0.8548  2.3660
  562EMI    C2"10675   0.329   0.670   6.078  0.5132 -0.0225 -1.0476
  562EMI    H2"10676   0.391   0.657   6.167  0.0033  0.6296  0.0978
  562EMI    H2"10677   0.390   0.643   5.988  2.3865  0.2877 -0.4954
  562EMI    H2"10678   0.287   0.773   6.068 -1.2388  0.8254 -1.7316
  563EMI     N110679   6.311   0.362   1.991 -0.1381  0.7910  0.5340
  563EMI     C210680   6.371   0.433   2.095 -0.6565  0.7832 -0.7013
  563EMI     N310681   6.502   0.400   2.098  0.1305  0.0528 -0.0861
  563EMI     C410682   6.527   0.324   1.986  0.8900 -0.5213 -0.3508
  563EMI     C510683   6.410   0.299   1.919  0.3686 -0.7673 -0.5651
  563EMI     H210684   6.321   0.498   2.164  0.2263  0.0621 -1.9845
  563EMI     H410685   6.622   0.282   1.969  0.4530 -0.5187 -0.9903
  563EMI     H510686   6.396   0.240   1.829 -0.6714  1.3785 -2.5622
  563EMI    C1'10687   6.607   0.428   2.196 -0.0620 -0.2229 -0.2503
  563EMI    H1'10688   6.611   0.339   2.250  0.2079  0.5145 -0.0536
  563EMI    H1'10689   6.702   0.456   2.153 -2.1101 -1.5466 -2.0761
  563EMI    H1'10690   6.575   0.508   2.262 -1.0008  1.8802 -0.5837
  563EMI    C1"10691   6.169   0.352   1.946 -0.1355 -0.0623  0.7990
  563EMI    H1"10692   6.107   0.323   2.028 -0.5108 -2.7706 -1.4422
  563EMI    H1"10693   6.151   0.271   1.872 -0.4785  1.1308 -0.3413
  563EMI    C2"10694   6.113   0.487   1.892 -0.1952 -0.1895  0.8866
  563EMI    H2"10695   6.178   0.517   1.812  0.1709 -0.0307 -1.2263
  563EMI    H2"10696   6.012   0.473   1.872 -0.7411 -1.8849  1.6870
  563EMI    H2"10697   6.120   0.557   1.971 -0.3044 -0.5188  1.7018
  564EMI     N110698   4.873   0.667   6.000 -0.2719  0.1791  0.0559
  564EMI     C210699   4.859   0.766   5.908  0.2795  0.7430  0.8666
  564EMI     N310700   4.972   0.833   5.894 -0.5490 -0.4754  0.3956
  564EMI     C410701   5.062   0.773   5.979  0.2343  0.2829 -0.0873
  564EMI     C510702   5.005   0.673   6.045 -0.4749 -0.4951 -0.0210
  564EMI     H210703   4.762   0.792   5.863 -0.0963  0.4896  2.2761
  564EMI     H410704   5.170   0.791   5.986  1.9126 -1.2463 -2.8076
  564EMI     H510705   5.046   0.609   6.115 -0.7968 -3.6185 -1.6947
  564EMI    C1'10706   5.005   0.940   5.799 -0.6864 -0.0550  0.3078
  564EMI    H1'10707   4.969   0.909   5.703 -1.5140  1.6460  0.3175
  564EMI    H1'10708   4.949   1.029   5.825  1.8348 -2.2143 -2.7687
  564EMI    H1'10709   5.113   0.952   5.809  2.0784  1.0860 -0.5631
  564EMI    C1"10710   4.787   0.566   6.046  0.2454 -0.2811  0.2173
  564EMI    H1"10711   4.738   0.596   6.139  2.2771  0.6397  1.5411
  564EMI    H1"10712   4.842   0.475   6.070  0.9114 -0.6414  1.1246
  564EMI    C2"10713   4.686   0.521   5.943 -0.3296 -0.3031  0.5186
  564EMI    H2"10714   4.733   0.453   5.872  0.6109 -2.4566  4.0050
  564EMI    H2"10715   4.600   0.471   5.997 -2.3934  0.0697  1.5509
  564EMI    H2"10716   4.651   0.612   5.896  0.1221  0.4560 -0.5778
  565EMI     N110717   5.330   0.474   2.234  0.8620 -0.6784 -0.2723
  565EMI     C210718   5.393   0.370   2.185 -0.0187  0.1110 -0.3296
  565EMI     N310719   5.313   0.296   2.108  0.3306  0.7877  0.3555
  565EMI     C410720   5.184   0.349   2.125 -0.3980  0.2560  0.2475
  565EMI     C510721   5.198   0.462   2.197  0.1010  0.4095 -0.8143
  565EMI     H210722   5.501   0.353   2.205  1.1374 -1.5036  0.2399
  565EMI     H410723   5.084   0.306   2.095  0.4701  1.9088 -0.1770
  565EMI     H510724   5.112   0.525   2.228  0.5176 -0.1704  0.0923
  565EMI    C1'10725   5.340   0.175   2.032 -0.0384  1.1208 -0.3528
  565EMI    H1'10726   5.277   0.094   2.062  0.8624  1.1890 -2.0297
  565EMI    H1'10727   5.325   0.194   1.926  0.5433  0.5750  1.3276
  565EMI    H1'10728   5.450   0.144   2.046  4.2305 -1.4947  0.9537
  565EMI    C1"10729   5.380   0.584   2.322  0.5817 -0.3857 -0.0097
  565EMI    H1"10730   5.485   0.572   2.347 -1.2992  1.9739  1.2107
  565EMI    H1"10731   5.321   0.580   2.415 -0.1076  1.3012  0.4828
  565EMI    C2"10732   5.364   0.718   2.254  0.5630  0.2979 -0.8362
  565EMI    H2"10733   5.328   0.790   2.330 -0.4969 -2.6890  1.3768
  565EMI    H2"10734   5.463   0.743   2.214  0.6456  1.0241  0.5461
  565EMI    H2"10735   5.297   0.727   2.175 -1.5555 -3.2030 -1.1714
  566EMI     N110736   1.740   2.292   1.471  0.0451  0.0011 -0.1816
  566EMI     C210737   1.847   2.372   1.504  0.3738 -0.3369 -0.6137
  566EMI     N310738   1.932   2.378   1.397 -0.2616 -0.4387  0.4779
  566EMI     C410739   1.885   2.296   1.299 -0.7333 -0.2885 -0.3023
  566EMI     C510740   1.771   2.244   1.344  0.0914 -0.0708 -0.0367
  566EMI     H210741   1.860   2.413   1.601 -1.2259 -1.0488  0.7280
  566EMI     H410742   1.914   2.279   1.200 -2.6620  0.9946 -0.5747
  566EMI     H510743   1.709   2.184   1.278  0.0986  0.8333 -0.4004
  566EMI    C1'10744   2.060   2.456   1.381 -0.6535 -0.2788  0.6203
  566EMI    H1'10745   2.060   2.554   1.433 -2.5121  0.4455  1.2349
  566EMI    H1'10746   2.141   2.404   1.423  2.3356 -0.2335  1.5421
  566EMI    H1'10747   2.081   2.476   1.273 -1.9715 -1.6403  2.8266
  566EMI    C1"10748   1.618   2.249   1.543 -0.3480 -0.5501  0.2454
  566EMI    H1"10749   1.539   2.223   1.470  1.2665 -0.2591  3.1489
  566EMI    H1"10750   1.583   2.328   1.620  1.4502  1.5431  1.2748
  566EMI    C2"10751   1.656   2.116   1.619  0.1090  0.4136  0.2499
  566EMI    H2"10752   1.560   2.080   1.655 -0.3584  1.4976 -0.9828
  566EMI    H2"10753   1.696   2.037   1.549  0.3797 -1.5023  0.0032
  566EMI    H2"10754   1.723   2.140   1.699 -0.8976  2.4452 -1.6509
  567EMI     N110755   0.801   1.759   5.051  0.7842  0.1458  0.4063
  567EMI     C210756   0.924   1.807   5.085  0.3660 -0.3354  0.2724
  567EMI     N310757   0.997   1.707   5.127  0.4699  0.0982 -0.5408
  567EMI     C410758   0.924   1.591   5.117 -0.2225  0.0904  0.0456
  567EMI     C510759   0.801   1.622   5.071 -0.3039  0.2787 -0.1775
  567EMI     H210760   0.942   1.910   5.101 -1.8105 -0.2389 -0.2820
  567EMI     H410761   0.964   1.492   5.148  2.2425  0.5071  0.6465
  567EMI     H510762   0.717   1.553   5.059  2.2545 -3.3880  0.2151
  567EMI    C1'10763   1.140   1.708   5.178  0.5251  0.2015 -0.2483
  567EMI    H1'10764   1.207   1.642   5.114  0.4858 -1.4626 -0.9078
  567EMI    H1'10765   1.178   1.813   5.189  1.0610 -1.0591  4.2551
  567EMI    H1'10766   1.147   1.663   5.279 -0.6646  0.8882 -0.8293
  567EMI    C1"10767   0.675   1.827   4.993 -0.2666 -0.5809 -0.3475
  567EMI    H1"10768   0.599   1.846   5.072 -0.3745  4.5752  0.4954
  567EMI    H1"10769   0.624   1.768   4.915 -1.0602 -1.2084 -0.7062
  567EMI    C2"10770   0.709   1.968   4.947 -0.6500 -0.2684 -0.4300
  567EMI    H2"10771   0.623   2.035   4.930 -1.5655  1.4031 -4.3078
  567EMI    H2"10772   0.783   2.013   5.017  1.2976  1.2051  2.6243
  567EMI    H2"10773   0.744   1.966   4.847 -2.2610 -1.0478  0.5529
  568EMI     N110774   0.832   1.251   0.404 -0.1332  0.3238  0.5695
  568EMI     C210775   0.707   1.207   0.394  0.3150  0.0113 -0.1909
  568EMI     N310776   0.633   1.308   0.354  0.3037 -0.2463  0.6947
  568EMI     C410777   0.708   1.424   0.349 -0.0734 -0.2331  0.1590
  568EMI     C510778   0.832   1.388   0.386  0.7090  0.2167 -0.4192
  568EMI     H210779   0.673   1.106   0.399  0.8536 -1.9505 -1.9965
  568EMI     H410780   0.679   1.524   0.333  0.7104 -0.4445 -1.3916
  568EMI     H510781   0.915   1.457   0.401  0.0639  1.6214 -0.0626
  568EMI    C1'10782   0.494   1.315   0.343  0.3182  0.5369  0.1225
  568EMI    H1'10783   0.452   1.357   0.433 -0.1592 -0.3250  0.5998
  568EMI    H1'10784   0.479   1.373   0.256 -0.0162 -2.6229 -0.3278
  568EMI    H1'10785   0.430   1.229   0.306 -2.0328 -1.9555 -2.3319
  568EMI    C1"10786   0.964   1.182   0.425  0.1618  0.0890  0.0806
  568EMI    H1"10787   1.003   1.154   0.325  2.5229 -2.0853 -2.6038
  568EMI    H1"10788   0.950   1.090   0.481 -0.6139  0.1029 -0.2390
  568EMI    C2"10789   1.072   1.270   0.504 -0.5100  1.0315 -0.7523
  568EMI    H2"10790   1.031   1.288   0.605  1.0312  1.1714  1.1766
  568EMI    H2"10791   1.162   1.205   0.516  1.9084 -0.1392 -1.1468
  568EMI    H2"10792   1.096   1.352   0.442  0.3803  0.1917 -1.3313
  569EMI     N110793   2.156   1.044   1.598  0.2037 -0.7871  0.3763
  569EMI     C210794   2.057   1.127   1.647  0.3829 -0.0293  0.0754
  569EMI     N310795   2.045   1.097   1.778  0.2652  0.4085  0.8375
  569EMI     C410796   2.120   0.993   1.808 -1.2243 -0.4297 -0.5645
  569EMI     C510797   2.189   0.958   1.703 -0.0087 -0.3503 -0.4383
  569EMI     H210798   2.023   1.221   1.595 -0.9341 -0.7723  1.9988
  569EMI     H410799   2.130   0.950   1.903 -0.3080 -1.7661  1.7025
  569EMI     H510800   2.267   0.881   1.703  0.2072  0.7353  1.5720
  569EMI    C1'10801   1.988   1.183   1.886 -0.3175 -0.8427  0.2765
  569EMI    H1'10802   1.994   1.140   1.984 -1.8286 -0.6004  0.0792
  569EMI    H1'10803   2.036   1.281   1.883  2.5380  1.6687  1.0845
  569EMI    H1'10804   1.886   1.195   1.862  1.5602 -2.1782  2.1335
  569EMI    C1"10805   2.209   1.030   1.465  0.0693 -0.0118  0.2851
  569EMI    H1"10806   2.133   0.986   1.398 -0.7187 -0.7386 -0.5366
  569EMI    H1"10807   2.297   0.969   1.460  0.9809 -0.4476  1.6472
  569EMI    C2"10808   2.241   1.173   1.413  0.0842 -0.1463 -0.6387
  569EMI    H2"10809   2.154   1.239   1.415 -0.2437 -0.9462  1.4259
  569EMI    H2"10810   2.332   1.211   1.465 -0.7529  1.8309  2.5901
  569EMI    H2"10811   2.274   1.156   1.310 -1.3277  1.0773  1.0217
  570EMI     N110812   4.480   3.511   0.778  0.0577 -0.2201 -0.0400
  570EMI     C210813   4.552   3.489   0.887 -0.6505 -0.5297 -0.1291
  570EMI     N310814   4.584   3.605   0.951 -0.5902 -0.4376 -0.7591
  570EMI     C410815   4.548   3.703   0.856 -0.0702  0.2923 -1.0669
  570EMI     C510816   4.485   3.645   0.757  0.1464  1.1285  0.4514
  570EMI     H210817   4.573   3.391   0.923  1.1048 -0.9139  1.8436
  570EMI     H410818   4.556   3.817   0.870 -1.5236  2.7974  2.2480
  570EMI     H510819   4.447   3.698   0.672  1.8182 -2.4361  2.4260
  570EMI    C1'10820   4.669   3.634   1.069  0.5424 -0.9012 -0.0315
  570EMI    H1'10821   4.774   3.671   1.048 -1.0344  2.2668  2.0715
  570EMI    H1'10822   4.624   3.722   1.118 -2.6149  4.0536 -2.0061
  570EMI    H1'10823   4.671   3.554   1.138 -1.1791  2.7604  0.2821
  570EMI    C1"10824   4.423   3.409   0.688 -1.0602  0.1076 -0.2083
  570EMI    H1"10825   4.363   3.459   0.620  1.4577 -2.6344  1.4342
  570EMI    H1"10826   4.361   3.348   0.743  1.5988  0.7633  0.2093
  570EMI    C2"10827   4.533   3.323   0.615  0.2202 -0.0373 -0.6821
  570EMI    H2"10828   4.485   3.252   0.549 -1.0182 -1.4879  0.0140
  570EMI    H2"10829   4.606   3.390   0.567  0.7435  2.0743  1.3745
  570EMI    H2"10830   4.597   3.272   0.682  3.5208  1.1563 -0.4107
  571EMI     N110831   6.009   1.808   3.058  0.0478 -0.5595  0.2876
  571EMI     C210832   5.911   1.727   3.103 -0.0998  0.2567 -0.4501
  571EMI     N310833   5.953   1.600   3.093 -0.4084  0.2829 -0.1750
  571EMI     C410834   6.086   1.609   3.055 -0.3334  0.8082 -0.5696
  571EMI     C510835   6.118   1.736   3.037 -0.6730 -0.1047  0.0245
  571EMI     H210836   5.814   1.757   3.131  0.4111  0.1010  0.5405
  571EMI     H410837   6.154   1.522   3.057 -0.6506 -3.0313  1.5526
  571EMI     H510838   6.219   1.768   3.024 -0.5243 -2.3024  1.7180
  571EMI    C1'10839   5.882   1.474   3.113 -0.0380 -0.2174  0.5227
  571EMI    H1'10840   5.836   1.445   3.023  1.1620  0.3240 -1.1813
  571EMI    H1'10841   5.951   1.404   3.158 -0.8148  0.9673 -1.5106
  571EMI    H1'10842   5.799   1.504   3.183 -0.4513  0.1769  0.8890
  571EMI    C1"10843   6.008   1.958   3.052 -0.0550  0.0671 -0.0201
  571EMI    H1"10844   6.088   1.999   3.111  0.5961 -1.9698  3.9167
  571EMI    H1"10845   5.916   1.997   3.098  0.8832 -0.4501  1.7689
  571EMI    C2"10846   6.021   2.013   2.910  0.1242  0.1707 -0.1072
  571EMI    H2"10847   6.098   1.959   2.856 -0.0776 -0.2889 -0.6786
  571EMI    H2"10848   5.929   1.993   2.848 -3.8959 -1.3396 -0.3144
  571EMI    H2"10849   6.025   2.120   2.926 -0.5173  0.4112 -2.2448
  572EMI     N110850   4.328   3.952   5.247 -0.3431 -0.2527  0.6261
  572EMI     C210851   4.392   4.025   5.155  0.2324 -0.5293  0.0282
  572EMI     N310852   4.303   4.044   5.056 -0.2982  0.2013  0.1993
  572EMI     C410853   4.179   3.991   5.090  0.5553  0.2150 -0.0116
  572EMI     C510854   4.200   3.932   5.206  0.0025  0.4287 -0.5450
  572EMI     H210855   4.492   4.057   5.166 -0.6882  1.5567  1.5951
  572EMI     H410856   4.098   3.988   5.017 -2.2566  1.9631 -0.9236
  572EMI     H510857   4.136   3.864   5.251  0.2587 -1.6027 -0.3035
  572EMI    C1'10858   4.323   4.116   4.932  0.3228 -0.3403 -0.0060
  572EMI    H1'10859   4.244   4.082   4.859  1.7010  0.8600  2.3470
  572EMI    H1'10860   4.313   4.223   4.942  0.7986  3.1560  2.7984
  572EMI    H1'10861   4.422   4.094   4.893  4.1962  0.7520 -4.2287
  572EMI    C1"10862   4.382   3.908   5.378  0.1529  0.3604  0.4742
  572EMI    H1"10863   4.299   3.847   5.423  1.5602 -2.6109 -1.4548
  572EMI    H1"10864   4.411   3.997   5.430  0.7814  0.9851  0.2797
  572EMI    C2"10865   4.504   3.816   5.357  0.3332 -0.5902 -0.2321
  572EMI    H2"10866   4.571   3.798   5.445 -0.5235 -0.2954 -0.7072
  572EMI    H2"10867   4.467   3.724   5.313 -1.2676  1.5720  1.7639
  572EMI    H2"10868   4.569   3.869   5.291 -3.3078 -1.6235 -0.1968
  573EMI     N110869   3.516   5.559   5.414 -0.1683 -0.1032 -0.2190
  573EMI     C210870   3.438   5.455   5.442 -0.2949  0.1305 -0.0454
  573EMI     N310871   3.505   5.353   5.488 -0.4901 -0.0020 -0.3400
  573EMI     C410872   3.635   5.391   5.485  0.0191  0.3533  0.2205
  573EMI     C510873   3.646   5.516   5.443 -0.2830  0.4178  0.0616
  573EMI     H210874   3.337   5.471   5.435  1.9728 -0.1114 -0.5403
  573EMI     H410875   3.720   5.324   5.510  0.6991 -1.1734  0.3039
  573EMI     H510876   3.735   5.577   5.423  0.1995  0.7163 -1.6477
  573EMI    C1'10877   3.458   5.217   5.519  0.1445  0.3850 -0.4970
  573EMI    H1'10878   3.430   5.168   5.423 -0.5375  1.1410 -2.7278
  573EMI    H1'10879   3.538   5.166   5.575  1.2545 -0.6970  1.5664
  573EMI    H1'10880   3.368   5.224   5.583 -2.3205  0.3373 -0.7490
  573EMI    C1"10881   3.483   5.694   5.365  0.1531 -0.6698  0.6039
  573EMI    H1"10882   3.463   5.691   5.257  1.0398  0.2249  1.7856
  573EMI    H1"10883   3.568   5.755   5.388 -1.5039 -0.0454  1.8915
  573EMI    C2"10884   3.370   5.762   5.440  0.2467  1.0293 -0.0840
  573EMI    H2"10885   3.284   5.709   5.422  1.6124 -1.6483 -0.6446
  573EMI    H2"10886   3.385   5.754   5.549 -0.4021 -0.8687 -0.1948
  573EMI    H2"10887   3.364   5.862   5.407 -1.7344  0.0898 -0.3184
  574EMI     N110888   2.616   2.434   1.416 -0.1705 -0.3126  0.8498
  574EMI     C210889   2.606   2.302   1.427 -0.0191 -0.4807  0.5460
  574EMI     N310890   2.702   2.244   1.501 -0.5181 -0.5540 -0.2281
  574EMI     C410891   2.770   2.352   1.557  0.8737  0.0095  0.4021
  574EMI     C510892   2.716   2.466   1.503 -0.4204 -0.2456 -0.6674
  574EMI     H210893   2.535   2.243   1.365 -0.6561 -0.2223  0.3934
  574EMI     H410894   2.849   2.351   1.631 -0.1710  0.0778  0.1733
  574EMI     H510895   2.748   2.564   1.523  0.6012  0.2028 -1.7270
  574EMI    C1'10896   2.727   2.105   1.530 -0.6776  0.1562  0.5872
  574EMI    H1'10897   2.633   2.051   1.551  0.2982 -1.0667 -1.2574
  574EMI    H1'10898   2.770   2.067   1.441  0.5656 -0.0483  0.4772
  574EMI    H1'10899   2.797   2.094   1.618 -1.3773  0.2991  1.3017
  574EMI    C1"10900   2.544   2.537   1.338  0.2319  0.2888  0.3406
  574EMI    H1"10901   2.604   2.627   1.336 -1.4893 -0.1412  0.7148
  574EMI    H1"10902   2.452   2.558   1.390 -0.9193  0.9966 -1.6854
  574EMI    C2"10903   2.512   2.476   1.199  0.4361 -0.9955  0.1845
  574EMI    H2"10904   2.603   2.452   1.156  0.6669  0.9517 -0.3160
  574EMI    H2"10905   2.439   2.396   1.201 -2.9521  0.6076 -2.8945
  574EMI    H2"10906   2.473   2.548   1.130 -3.9867 -2.4485 -1.6656
  575EMI     N110907   6.051   2.432   3.068  0.0345  0.1176  0.1525
  575EMI     C210908   6.099   2.496   2.965 -0.7248 -0.7710  0.1060
  575EMI     N310909   6.201   2.433   2.907  0.1827  0.9225  0.3051
  575EMI     C410910   6.220   2.320   2.978  0.6616  0.0370 -0.1775
  575EMI     C510911   6.128   2.316   3.076 -0.8639  0.5976  0.2840
  575EMI     H210912   6.063   2.591   2.927  2.2383  0.8440 -3.0434
  575EMI     H410913   6.303   2.251   2.965  3.1928  2.2470  2.0106
  575EMI     H510914   6.113   2.244   3.156  1.9380  1.0905  1.6932
  575EMI    C1'10915   6.303   2.475   2.809  0.7364  0.5305  0.5220
  575EMI    H1'10916   6.374   2.548   2.850 -3.9990  1.3207  0.1418
  575EMI    H1'10917   6.352   2.390   2.758 -0.8506 -0.1478  0.0016
  575EMI    H1'10918   6.256   2.520   2.717 -1.7220 -1.5528 -1.2508
  575EMI    C1"10919   5.919   2.459   3.137 -0.2960 -1.4495 -0.2085
  575EMI    H1"10920   5.882   2.561   3.111  2.1476 -3.2654 -0.3628
  575EMI    H1"10921   5.929   2.456   3.246 -2.8004  1.6957  0.9716
  575EMI    C2"10922   5.814   2.347   3.112 -0.8548  0.0667 -0.1525
  575EMI    H2"10923   5.803   2.335   3.004  0.9883 -0.9900 -0.9169
  575EMI    H2"10924   5.844   2.241   3.156 -1.4681 -1.2408 -0.5019
  575EMI    H2"10925   5.723   2.387   3.151 -1.9900  1.0575 -0.7752
  576EMI     N110926   4.569   0.570   3.615  0.3731 -0.1042 -0.4535
  576EMI     C210927   4.565   0.563   3.754  1.2547  0.0007  0.4044
  576EMI     N310928   4.448   0.507   3.792 -0.5857 -0.0093  0.5422
  576EMI     C410929   4.378   0.478   3.682 -0.1069 -0.3424  0.3502
  576EMI     C510930   4.448   0.516   3.575 -0.3543 -0.2683  0.5174
  576EMI     H210931   4.646   0.588   3.826 -3.2974  0.7151 -1.4254
  576EMI     H410932   4.282   0.426   3.683 -0.2041  1.1905 -1.1794
  576EMI     H510933   4.417   0.503   3.472 -0.1837  2.7517  1.4677
  576EMI    C1'10934   4.390   0.497   3.933 -0.4024 -0.5495 -0.8744
  576EMI    H1'10935   4.320   0.580   3.951  0.8217  0.8037 -0.4150
  576EMI    H1'10936   4.344   0.407   3.953  0.9679  0.1051  1.5245
  576EMI    H1'10937   4.475   0.520   3.998  0.9823  0.8995 -1.1540
  576EMI    C1"10938   4.676   0.622   3.523 -0.2415 -0.0473  0.2864
  576EMI    H1"10939   4.667   0.732   3.525  2.3609  0.9524  0.1130
  576EMI    H1"10940   4.647   0.584   3.433 -0.7068  0.1857  0.1261
  576EMI    C2"10941   4.810   0.574   3.577  0.5972 -0.5826 -0.0398
  576EMI    H2"10942   4.833   0.624   3.670 -1.0674  1.0994  2.6162
  576EMI    H2"10943   4.801   0.463   3.612 -1.0680 -4.8917 -0.9159
  576EMI    H2"10944   4.888   0.580   3.502  0.6397 -1.3893  1.4324
  577EMI     N110945   5.013   0.397   5.301 -0.3859 -0.0251 -0.6740
  577EMI     C210946   4.900   0.337   5.250  0.0126 -0.4466 -0.1387
  577EMI     N310947   4.878   0.217   5.312 -0.1453 -0.2960  0.2990
  577EMI     C410948   4.980   0.198   5.398  0.4331  0.3936  0.3285
  577EMI     C510949   5.063   0.307   5.393 -0.0486  0.0363 -0.0993
  577EMI     H210950   4.836   0.375   5.169 -0.3490 -0.2567  1.1328
  577EMI     H410951   4.996   0.107   5.462  1.7938  0.7856  0.4144
  577EMI     H510952   5.161   0.323   5.451  0.0026 -0.0657 -0.8561
  577EMI    C1'10953   4.773   0.116   5.294 -0.0867 -0.4206 -0.1207
  577EMI    H1'10954   4.832   0.041   5.240 -4.0312  0.0266  1.2385
  577EMI    H1'10955   4.738   0.081   5.390 -0.2211  1.0030 -1.2550
  577EMI    H1'10956   4.694   0.148   5.226 -0.4357  1.6701  1.3428
  577EMI    C1"10957   5.082   0.520   5.262 -0.0872 -0.0074  0.3718
  577EMI    H1"10958   5.139   0.494   5.173 -1.0932 -0.7130 -0.1109
  577EMI    H1"10959   5.147   0.553   5.338  0.2572  2.6536  0.4497
  577EMI    C2"10960   4.986   0.632   5.236 -0.6592 -0.4261 -0.1336
  577EMI    H2"10961   4.927   0.635   5.330 -2.8865 -0.4598 -0.8215
  577EMI    H2"10962   5.048   0.724   5.208  0.0538  2.1207 -0.8596
  577EMI    H2"10963   4.921   0.607   5.146  2.0538 -1.4997 -0.6750
  578EMI     N110964   2.484   4.786   2.280 -0.5656 -0.5365  0.6532
  578EMI     C210965   2.560   4.799   2.168 -0.3209 -0.0429 -0.2474
  578EMI     N310966   2.621   4.916   2.158  0.0231 -0.1940 -0.3030
  578EMI     C410967   2.581   4.986   2.269  0.5256  0.0838  0.3373
  578EMI     C510968   2.493   4.910   2.339 -0.8629  0.3486 -0.5335
  578EMI     H210969   2.577   4.723   2.092 -0.3026  2.5914  2.0403
  578EMI     H410970   2.606   5.083   2.301 -0.7884 -0.4120 -1.3392
  578EMI     H510971   2.452   4.933   2.437 -1.4890 -0.9043  0.8129
  578EMI    C1'10972   2.719   4.965   2.061 -0.2191  0.1935  0.0494
  578EMI    H1'10973   2.691   4.949   1.950 -0.7503  0.4064 -0.9959
  578EMI    H1'10974   2.741   5.073   2.075  1.2303  1.5972 -1.3057
  578EMI    H1'10975   2.810   4.908   2.095  1.2403 -0.7137 -0.1737
  578EMI    C1"10976   2.414   4.668   2.336 -0.2668 -0.2922  0.0576
  578EMI    H1"10977   2.451   4.648   2.442  0.2555  0.4033  3.3476
  578EMI    H1"10978   2.434   4.581   2.276  0.1017  0.2374 -0.1103
  578EMI    C2"10979   2.259   4.686   2.328 -0.6208  0.1596 -0.0067
  578EMI    H2"10980   2.229   4.642   2.234 -0.1908 -2.7972  0.1785
  578EMI    H2"10981   2.223   4.634   2.418  1.0921  1.1863  0.1679
  578EMI    H2"10982   2.235   4.794   2.325 -1.4640  4.0324  0.4698
  579EMI     N110983   1.670   5.988   2.312 -0.0753 -0.8075 -0.3820
  579EMI     C210984   1.676   5.849   2.310 -0.2861 -0.5248 -0.3947
  579EMI     N310985   1.573   5.805   2.390 -1.4863 -0.4566  0.4925
  579EMI     C410986   1.517   5.913   2.455 -0.1570 -0.4594  0.6098
  579EMI     C510987   1.584   6.026   2.412 -0.4082 -0.0681  0.2710
  579EMI     H210988   1.745   5.802   2.245  0.9200  4.5227 -0.2000
  579EMI     H410989   1.441   5.911   2.530 -1.6940 -0.0768 -0.3593
  579EMI     H510990   1.573   6.131   2.437  0.4597  0.5138  0.7515
  579EMI    C1'10991   1.543   5.668   2.428 -1.0731 -0.2180  0.0118
  579EMI    H1'10992   1.529   5.659   2.539  0.5671 -0.5792  2.8172
  579EMI    H1'10993   1.448   5.627   2.384  0.2493 -0.7865 -1.5559
  579EMI    H1'10994   1.629   5.602   2.402  1.4044 -3.4670 -0.0858
  579EMI    C1"10995   1.743   6.090   2.232  0.6759 -0.3613 -0.2838
  579EMI    H1"10996   1.810   6.149   2.293 -1.1086 -0.4294 -0.0790
  579EMI    H1"10997   1.680   6.153   2.170 -2.2393 -1.7629  2.1482
  579EMI    C2"10998   1.827   6.017   2.133  0.1954 -0.0738  0.3545
  579EMI    H2"10999   1.755   5.967   2.059 -2.2583  2.3656  0.7605
  579EMI    H2"11000   1.873   6.094   2.063 -2.9516 -1.1194 -1.1100
  579EMI    H2"11001   1.902   5.946   2.171  1.0590 -0.8721 -1.7408
  580EMI     N111002   6.558   4.619   6.272 -0.2150 -0.5836  0.3394
  580EMI     C211003   6.525   4.531   6.360 -0.3631  0.4775  0.0410
  580EMI     N311004   6.418   4.461   6.319 -0.2642  0.4419 -0.0761
  580EMI     C411005   6.387   4.504   6.191  0.1245  0.0092  0.0465
  580EMI     C511006   6.467   4.610   6.168 -0.1200 -0.3950 -0.4128
  580EMI     H211007   6.567   4.511   6.454  1.1556 -0.5872  2.3411
  580EMI     H411008   6.313   4.452   6.124  0.0967 -0.4688 -1.8901
  580EMI     H511009   6.470   4.677   6.085 -0.3978  2.3588 -1.0216
  580EMI    C1'11010   6.367   4.335   6.373  0.3837 -0.5700 -0.0120
  580EMI    H1'11011   6.448   4.257   6.369  1.6516 -0.2566  1.0226
  580EMI    H1'11012   6.327   4.348   6.478 -0.9077 -0.5658 -0.6534
  580EMI    H1'11013   6.283   4.291   6.324  0.3257  3.9939  0.5951
  580EMI    C1"11014   6.672   4.716   6.265  0.4150  0.4568 -0.9806
  580EMI    H1"11015   6.768   4.665   6.261  0.6046 -0.2371  1.0244
  580EMI    H1"11016   6.677   4.776   6.360  0.2832  2.3102  2.7150
  580EMI    C2"11017   6.667   4.818   6.148  0.7841 -0.1937 -0.5130
  580EMI    H2"11018   6.571   4.865   6.156 -1.0315 -0.5025  1.6769
  580EMI    H2"11019   6.742   4.889   6.169  2.1287 -0.0746 -1.9552
  580EMI    H2"11020   6.686   4.771   6.052 -0.0842  0.3119  1.7296
  581EMI     N111021   2.948   1.625   4.517  0.5673 -0.3740  0.5323
  581EMI     C211022   2.883   1.740   4.516  0.3101  0.0383  0.2467
  581EMI     N311023   2.785   1.731   4.420 -0.5005 -0.2857 -0.0023
  581EMI     C411024   2.804   1.621   4.347  0.6052 -0.2588 -0.1797
  581EMI     C511025   2.891   1.546   4.416  0.1430  0.1713  0.5412
  581EMI     H211026   2.903   1.824   4.586  1.5301 -1.5794  0.9245
  581EMI     H411027   2.748   1.594   4.252 -2.4667 -1.1346 -4.4366
  581EMI     H511028   2.912   1.435   4.394 -2.4552 -0.0612  2.3560
  581EMI    C1'11029   2.701   1.841   4.373 -0.4047  0.0332 -0.4329
  581EMI    H1'11030   2.616   1.866   4.438  0.2082 -1.0957  3.5788
  581EMI    H1'11031   2.763   1.923   4.353 -1.9427 -1.7117 -0.8033
  581EMI    H1'11032   2.657   1.808   4.283 -0.8935 -1.0737  1.0767
  581EMI    C1"11033   3.054   1.566   4.612  0.8484  0.3686  0.0258
  581EMI    H1"11034   3.024   1.461   4.628 -1.7568  0.8755 -0.2390
  581EMI    H1"11035   3.060   1.611   4.710 -1.2598 -0.4572 -1.0335
  581EMI    C2"11036   3.191   1.562   4.539  0.3001  0.0376 -0.2851
  581EMI    H2"11037   3.201   1.663   4.495  2.4239  2.7005  0.1547
  581EMI    H2"11038   3.271   1.535   4.608  0.5789 -0.8245  1.1395
  581EMI    H2"11039   3.189   1.488   4.462  0.9159 -1.8435  1.3395
  582EMI     N111040   6.090   0.128   2.669  0.0331  0.2158 -0.1001
  582EMI     C211041   6.073   0.117   2.539  0.4642  1.0456 -0.0210
  582EMI     N311042   6.006   0.221   2.500  0.4594  0.2117 -0.4224
  582EMI     C411043   5.966   0.295   2.607  0.1395 -0.6737  0.4690
  582EMI     C511044   6.011   0.231   2.716 -0.4373 -0.1110  0.3454
  582EMI     H211045   6.133   0.042   2.489 -1.0882 -1.5589  0.3826
  582EMI     H411046   5.908   0.387   2.605 -1.4278  0.6755 -0.4735
  582EMI     H511047   5.994   0.252   2.822  1.6777  1.6671  0.0189
  582EMI    C1'11048   5.981   0.256   2.365  0.9009 -0.0736 -0.0725
  582EMI    H1'11049   6.041   0.342   2.339 -4.5960  2.8254  0.3700
  582EMI    H1'11050   6.000   0.177   2.289  0.8872 -0.3412 -1.3551
  582EMI    H1'11051   5.875   0.273   2.363 -0.0894 -2.3763  0.9636
  582EMI    C1"11052   6.154   0.039   2.763 -0.1971 -0.1754 -0.0727
  582EMI    H1"11053   6.150  -0.058   2.722 -1.3791 -0.5303 -2.1965
  582EMI    H1"11054   6.091   0.037   2.855 -3.0367  1.9147  0.6065
  582EMI    C2"11055   6.303   0.075   2.789 -0.3535  0.3186 -0.4447
  582EMI    H2"11056   6.300   0.178   2.816  0.6080  0.7216 -0.8666
  582EMI    H2"11057   6.341   0.018   2.874 -0.2669  3.0713  0.7786
  582EMI    H2"11058   6.355   0.056   2.699 -0.2845  2.4687  0.5430
  583EMI     N111059   1.674   4.565   1.788 -0.4784 -0.4385  0.7691
  583EMI     C211060   1.798   4.535   1.824  0.3156 -0.1663  0.0109
  583EMI     N311061   1.867   4.480   1.720  0.0692 -0.1947  0.3745
  583EMI     C411062   1.774   4.462   1.620  0.1957 -0.0663 -0.5151
  583EMI     C511063   1.659   4.521   1.662 -0.6093  0.6073  0.1844
  583EMI     H211064   1.834   4.560   1.921  0.0392 -0.0282 -2.0200
  583EMI     H411065   1.785   4.419   1.518  1.2036 -1.5945  0.1420
  583EMI     H511066   1.566   4.537   1.608  0.3484 -1.6406 -1.7125
  583EMI    C1'11067   2.014   4.454   1.697 -0.1959  0.4040  0.8012
  583EMI    H1'11068   2.036   4.492   1.596  1.2813  0.3311  1.4674
  583EMI    H1'11069   2.080   4.478   1.779 -2.2092  1.4830 -0.1157
  583EMI    H1'11070   2.017   4.341   1.690 -1.2840  1.2289 -1.2160
  583EMI    C1"11071   1.567   4.610   1.870  0.4951 -0.7849 -0.5745
  583EMI    H1"11072   1.520   4.689   1.808 -1.9473 -2.3625 -0.3066
  583EMI    H1"11073   1.613   4.650   1.967 -0.2247 -0.9156 -0.2628
  583EMI    C2"11074   1.471   4.495   1.905  0.3746 -0.0708 -0.2255
  583EMI    H2"11075   1.533   4.416   1.949 -0.4490  0.1342 -0.3048
  583EMI    H2"11076   1.407   4.544   1.979  1.0170  2.0122  0.1969
  583EMI    H2"11077   1.415   4.465   1.815  1.6959  0.1098 -0.0204
  584EMI     N111078   0.330   3.459   3.085  0.3346 -0.3230  0.2865
  584EMI     C211079   0.325   3.521   3.203 -0.4028 -0.6679  0.5093
  584EMI     N311080   0.363   3.445   3.305  0.3486  0.2179  0.0461
  584EMI     C411081   0.407   3.329   3.245 -0.1374  0.4226  0.6415
  584EMI     C511082   0.396   3.346   3.111 -0.7238  0.5901  0.2790
  584EMI     H211083   0.301   3.629   3.216  0.1157  2.6876  1.8717
  584EMI     H411084   0.450   3.245   3.302 -1.4637  1.5786 -1.7758
  584EMI     H511085   0.438   3.273   3.042 -1.9263  1.9855 -2.9386
  584EMI    C1'11086   0.364   3.470   3.449  0.2676  0.7895 -0.0737
  584EMI    H1'11087   0.328   3.371   3.495 -0.1355 -1.5552 -1.7734
  584EMI    H1'11088   0.466   3.481   3.491  2.2793 -1.6696  1.4615
  584EMI    H1'11089   0.297   3.559   3.477  0.0154 -1.0768 -1.3446
  584EMI    C1"11090   0.319   3.508   2.947 -0.0934 -0.5387  0.5622
  584EMI    H1"11091   0.235   3.579   2.952 -0.9339  1.3570  0.4903
  584EMI    H1"11092   0.291   3.429   2.876 -1.6372  0.1845 -3.0871
  584EMI    C2"11093   0.438   3.590   2.896 -0.0055  0.1540 -0.2990
  584EMI    H2"11094   0.446   3.687   2.964 -0.1756 -1.6048 -0.9537
  584EMI    H2"11095   0.516   3.514   2.899  0.5378  0.1576  2.0496
  584EMI    H2"11096   0.410   3.609   2.790  0.4346 -0.2533 -3.1929
  585EMI     N111097   3.227   5.978   0.733 -0.0799  0.1852  0.2543
  585EMI     C211098   3.176   6.100   0.783  0.4046 -0.2556  0.8953
  585EMI     N311099   3.234   6.128   0.899 -0.2719  0.3553  0.2601
  585EMI     C411100   3.332   6.030   0.924  0.0438  0.1005 -0.3388
  585EMI     C511101   3.320   5.937   0.823 -0.9037 -0.6792  0.1582
  585EMI     H211102   3.091   6.149   0.738  1.5076  0.7311 -2.3021
  585EMI     H411103   3.393   6.019   1.009 -0.2696 -0.0320  1.7245
  585EMI     H511104   3.376   5.846   0.820 -1.0564 -0.3834 -2.3498
  585EMI    C1'11105   3.197   6.232   0.997 -0.0053  0.0555 -0.0947
  585EMI    H1'11106   3.289   6.263   1.043 -0.5643  0.5515  1.8945
  585EMI    H1'11107   3.166   6.319   0.941  1.0948  0.1062 -1.6151
  585EMI    H1'11108   3.124   6.196   1.066  1.0563 -1.0973 -1.3651
  585EMI    C1"11109   3.195   5.917   0.603 -0.1729 -1.0451  0.6998
  585EMI    H1"11110   3.239   5.819   0.593  1.5245 -0.8259 -2.3945
  585EMI    H1"11111   3.232   5.973   0.517 -2.6328  1.6580  0.2806
  585EMI    C2"11112   3.045   5.892   0.603  0.1122  0.4348 -0.2128
  585EMI    H2"11113   3.021   5.813   0.534  0.5839  0.2486 -0.2761
  585EMI    H2"11114   3.019   5.853   0.705 -1.3742 -2.5068  0.0793
  585EMI    H2"11115   2.998   5.987   0.597  1.9277  0.7347  2.2567
  586EMI     N111116   6.787   1.631   2.371  0.3459  0.2597  0.1158
  586EMI     C211117   6.752   1.732   2.292 -0.1043  0.7585  0.0964
  586EMI     N311118   6.631   1.772   2.325 -0.2080  0.0050 -0.2334
  586EMI     C411119   6.587   1.695   2.432  0.1824  0.2353  0.1421
  586EMI     C511120   6.685   1.608   2.462 -0.3934  0.2576  0.1831
  586EMI     H211121   6.808   1.770   2.214  0.4153 -0.0509 -0.3476
  586EMI     H411122   6.489   1.698   2.480 -0.4559 -2.0287 -1.3441
  586EMI     H511123   6.663   1.532   2.541 -0.4137  0.7661  0.9391
  586EMI    C1'11124   6.546   1.884   2.273 -0.2903 -0.2152  0.0461
  586EMI    H1'11125   6.573   1.985   2.312 -1.1745  1.8121  0.1473
  586EMI    H1'11126   6.548   1.904   2.165 -0.1992  0.5676 -0.0937
  586EMI    H1'11127   6.444   1.857   2.299 -0.1145 -0.2411 -3.8524
  586EMI    C1"11128   6.906   1.548   2.355  0.2840  0.6250 -0.2432
  586EMI    H1"11129   6.925   1.476   2.435  0.6710  1.2745  1.0768
  586EMI    H1"11130   6.992   1.607   2.340  1.6213 -2.0284  0.3241
  586EMI    C2"11131   6.890   1.461   2.231  0.2809  0.5405 -0.2140
  586EMI    H2"11132   6.978   1.407   2.213 -1.4110  2.6691  1.6946
  586EMI    H2"11133   6.811   1.391   2.255  1.7377 -0.4283  3.0750
  586EMI    H2"11134   6.867   1.514   2.140 -0.5726 -0.5648  1.9872
  587EMI     N111135   1.477   3.119   2.895  0.2405 -0.0268  0.6178
  587EMI     C211136   1.607   3.137   2.865 -0.0012  0.8119 -0.5094
  587EMI     N311137   1.667   3.020   2.839 -0.5287  0.5170 -0.1656
  587EMI     C411138   1.571   2.930   2.844  0.4906  0.4653 -0.2810
  587EMI     C511139   1.455   2.986   2.879  0.3852 -0.5316  0.1112
  587EMI     H211140   1.651   3.230   2.858  0.5864  0.0061  0.1256
  587EMI     H411141   1.590   2.824   2.826 -0.9236  1.3317 -0.9886
  587EMI     H511142   1.372   2.929   2.913  2.1728  0.0277  1.1534
  587EMI    C1'11143   1.805   2.984   2.820  0.3352 -0.0196 -0.1548
  587EMI    H1'11144   1.829   2.910   2.902 -0.6820  3.0434 -0.2333
  587EMI    H1'11145   1.802   2.930   2.725  1.3285 -1.1140 -0.6752
  587EMI    H1'11146   1.858   3.071   2.814  1.5111 -0.3374 -1.5264
  587EMI    C1"11147   1.373   3.220   2.929 -0.4199 -0.3346 -0.8052
  587EMI    H1"11148   1.416   3.293   2.988  1.8745  0.4610  1.3141
  587EMI    H1"11149   1.306   3.170   3.002 -1.8925  0.2534 -0.8317
  587EMI    C2"11150   1.293   3.274   2.806 -0.5548 -0.7248 -1.0689
  587EMI    H2"11151   1.248   3.195   2.752 -0.2671  1.0645  0.1246
  587EMI    H2"11152   1.207   3.337   2.832  0.4452 -2.2301 -0.6879
  587EMI    H2"11153   1.365   3.336   2.744  0.4736  1.9663  1.3154
  588EMI     N111154   6.690   1.586   1.457  0.6722  0.0591 -0.6335
  588EMI     C211155   6.644   1.710   1.493  0.9055  0.0411  0.1062
  588EMI     N311156   6.523   1.693   1.554 -0.1934 -0.1913  0.7000
  588EMI     C411157   6.498   1.560   1.563  0.2750 -0.2061 -0.5233
  588EMI     C511158   6.599   1.497   1.504 -0.4516 -0.0643 -0.2534
  588EMI     H211159   6.705   1.804   1.496  0.6771 -1.2317 -1.1229
  588EMI     H411160   6.402   1.519   1.604 -0.3881  0.4663  1.4073
  588EMI     H511161   6.602   1.392   1.482  3.0832  1.8699 -0.9368
  588EMI    C1'11162   6.433   1.787   1.617 -0.1611 -0.0414 -0.1440
  588EMI    H1'11163   6.345   1.732   1.637 -0.4724  0.4457 -3.8374
  588EMI    H1'11164   6.470   1.825   1.711  2.0302  0.8582  1.1901
  588EMI    H1'11165   6.400   1.867   1.552  0.0725  2.6635  1.7458
  588EMI    C1"11166   6.822   1.547   1.408  0.3224  0.0453  0.1554
  588EMI    H1"11167   6.810   1.446   1.362 -3.0135  0.4334 -0.1077
  588EMI    H1"11168   6.902   1.553   1.486  3.3287 -0.0982  0.3015
  588EMI    C2"11169   6.870   1.646   1.292  0.6569  1.1003 -1.2294
  588EMI    H2"11170   6.839   1.603   1.194  2.0397 -0.9810  0.2670
  588EMI    H2"11171   6.834   1.748   1.290  2.0007  0.0380  0.6242
  588EMI    H2"11172   6.977   1.642   1.297  0.5668 -0.4936  0.9080
  589EMI     N111173   1.367   4.192   3.186 -0.2275  0.5029 -0.4533
  589EMI     C211174   1.376   4.263   3.068 -0.3402 -0.5377 -0.6059
  589EMI     N311175   1.255   4.298   3.033  0.2375 -0.3299 -0.6241
  589EMI     C411176   1.167   4.235   3.117 -0.0597 -0.2744 -0.2018
  589EMI     C511177   1.238   4.169   3.209 -0.9876 -0.9382 -0.2446
  589EMI     H211178   1.478   4.297   3.029 -0.8761  0.0082  0.3881
  589EMI     H411179   1.059   4.235   3.108 -3.9979 -3.0870  1.5462
  589EMI     H511180   1.198   4.096   3.278  2.2687  1.4977 -1.9515
  589EMI    C1'11181   1.212   4.390   2.930  0.4147  0.5562  0.0643
  589EMI    H1'11182   1.112   4.375   2.894  3.2539  0.5277 -2.3313
  589EMI    H1'11183   1.212   4.489   2.982  1.9443 -0.6589  0.8942
  589EMI    H1'11184   1.279   4.390   2.846  1.3079  0.2876 -2.0448
  589EMI    C1"11185   1.474   4.138   3.271  0.7310 -0.6897  0.7758
  589EMI    H1"11186   1.428   4.113   3.363  1.2673 -0.9484 -1.7841
  589EMI    H1"11187   1.550   4.214   3.284  0.8736 -1.4506 -2.2161
  589EMI    C2"11188   1.545   4.019   3.214  0.1595 -0.4341 -0.0392
  589EMI    H2"11189   1.478   3.935   3.201 -1.3313  0.8579  1.7049
  589EMI    H2"11190   1.587   4.043   3.118 -0.0742  0.8274 -1.1820
  589EMI    H2"11191   1.628   3.985   3.280  0.7374 -0.5880 -0.6942
  590EMI     N111192   5.498   1.440   3.313  0.7530  0.1352  0.2564
  590EMI     C211193   5.579   1.350   3.254 -0.0309 -0.3878  0.1676
  590EMI     N311194   5.559   1.227   3.300 -0.6853 -0.1282 -0.6249
  590EMI     C411195   5.453   1.235   3.386 -0.1323  0.3547  0.0795
  590EMI     C511196   5.412   1.363   3.397 -0.2233 -0.4688 -0.4232
  590EMI     H211197   5.648   1.379   3.178  0.3641  0.2760  0.3814
  590EMI     H411198   5.404   1.156   3.442  1.3502  0.1045 -0.3714
  590EMI     H511199   5.331   1.402   3.451 -0.6074  1.0408 -3.3655
  590EMI    C1'11200   5.632   1.102   3.260  0.3304 -0.1251 -0.2467
  590EMI    H1'11201   5.617   1.073   3.157 -1.0003  1.4350 -0.5245
  590EMI    H1'11202   5.735   1.121   3.282 -2.1945 -0.6048 -0.2799
  590EMI    H1'11203   5.611   1.023   3.334  1.6514 -1.2789  0.1101
  590EMI    C1"11204   5.482   1.580   3.289  0.6241 -0.0841 -0.2348
  590EMI    H1"11205   5.575   1.631   3.265 -0.3759  1.2533  0.1962
  590EMI    H1"11206   5.459   1.624   3.386  0.1422 -0.9907 -1.1412
  590EMI    C2"11207   5.363   1.602   3.204  0.5512  0.0005  0.3445
  590EMI    H2"11208   5.379   1.554   3.105 -0.1953  1.5194  1.6010
  590EMI    H2"11209   5.272   1.570   3.250  0.5590 -0.2286 -1.2292
  590EMI    H2"11210   5.365   1.705   3.195  0.2225 -2.1198  1.0504
  591EMI     N111211   2.935   2.424   3.913  0.3978  0.4215  0.1291
  591EMI     C211212   2.972   2.390   4.038 -0.2689  0.4568 -0.0733
  591EMI     N311213   2.881   2.315   4.104  0.8267  0.3563  0.5408
  591EMI     C411214   2.781   2.302   4.007  0.8802 -0.6300 -0.9233
  591EMI     C511215   2.807   2.379   3.902  0.8395  0.0674  0.1596
  591EMI     H211216   3.072   2.395   4.075 -1.5437  0.8623  0.5861
  591EMI     H411217   2.689   2.240   4.038 -1.4346 -1.0581  1.0241
  591EMI     H511218   2.744   2.378   3.810  2.6700  2.5337  0.8232
  591EMI    C1'11219   2.881   2.248   4.230  0.0153 -0.1429 -0.2555
  591EMI    H1'11220   2.883   2.141   4.233  1.8179  1.9412 -1.4484
  591EMI    H1'11221   2.973   2.296   4.278  1.2659  1.9819  1.7921
  591EMI    H1'11222   2.795   2.277   4.290  1.0988 -1.0632  0.9782
  591EMI    C1"11223   3.009   2.495   3.803 -0.1290  0.6907 -0.6594
  591EMI    H1"11224   3.111   2.488   3.826 -0.7413 -0.5370  3.7366
  591EMI    H1"11225   2.980   2.600   3.807  1.3622 -1.9711  0.4115
  591EMI    C2"11226   2.991   2.433   3.673 -0.2197  0.3504  0.0780
  591EMI    H2"11227   3.006   2.323   3.682 -1.2656  0.3136 -0.6612
  591EMI    H2"11228   2.888   2.459   3.646  1.1373 -0.0148  2.7268
  591EMI    H2"11229   3.063   2.482   3.597 -0.0498  0.5922 -1.7023
  592EMI     N111230   1.668   2.544   0.372  1.0048  0.4458 -0.5016
  592EMI     C211231   1.779   2.617   0.388  0.5815  0.5610 -0.2011
  592EMI     N311232   1.875   2.591   0.298  0.3738 -0.0653 -0.1209
  592EMI     C411233   1.812   2.511   0.207 -0.6373 -0.7688 -0.3019
  592EMI     C511234   1.697   2.473   0.259 -0.2765  0.4952 -0.0918
  592EMI     H211235   1.800   2.667   0.484 -1.2292 -0.0522 -2.3310
  592EMI     H411236   1.863   2.476   0.117 -1.7625 -2.1204  0.8579
  592EMI     H511237   1.630   2.406   0.207 -1.8516  0.1092 -0.7087
  592EMI    C1'11238   1.998   2.665   0.262  0.1243  0.0714 -0.0609
  592EMI    H1'11239   2.004   2.760   0.322  0.7606  2.8492  0.5329
  592EMI    H1'11240   2.088   2.600   0.283  2.1468 -0.9328 -1.2090
  592EMI    H1'11241   1.998   2.686   0.152 -0.5017 -0.3099  1.0845
  592EMI    C1"11242   1.541   2.532   0.444 -0.3669 -0.4088 -0.0125
  592EMI    H1"11243   1.464   2.546   0.368  0.5031 -0.5131  1.7822
  592EMI    H1"11244   1.530   2.616   0.510  0.8976  2.6672  0.3893
  592EMI    C2"11245   1.526   2.401   0.514 -0.5997 -0.3539 -0.7024
  592EMI    H2"11246   1.611   2.384   0.579  2.0681 -0.9721  1.7537
  592EMI    H2"11247   1.436   2.404   0.570 -0.3024  4.7792  1.5210
  592EMI    H2"11248   1.525   2.321   0.444 -0.5610 -3.2985  3.2960
  593EMI     N111249   6.708   3.685   3.289 -0.5441 -0.3116 -0.5902
  593EMI     C211250   6.716   3.692   3.155 -0.1641 -0.3763 -0.2342
  593EMI     N311251   6.627   3.779   3.115 -0.2449  0.0155  0.2980
  593EMI     C411252   6.569   3.843   3.224 -0.8212 -0.6044 -0.4269
  593EMI     C511253   6.615   3.781   3.331 -0.7840 -0.5290 -0.5171
  593EMI     H211254   6.784   3.636   3.102  0.1621 -0.7699  0.9957
  593EMI     H411255   6.510   3.927   3.231  0.2696 -0.5034 -1.1307
  593EMI     H511256   6.596   3.823   3.431 -1.7080  3.8053 -0.5990
  593EMI    C1'11257   6.581   3.820   2.982  0.3264  0.3688 -0.6103
  593EMI    H1'11258   6.612   3.922   2.964  2.9987 -1.2158  0.9728
  593EMI    H1'11259   6.629   3.764   2.908  2.5586  1.5128  0.5365
  593EMI    H1'11260   6.479   3.820   2.978  2.6071  0.1212 -2.5223
  593EMI    C1"11261   6.786   3.604   3.382  0.0346  0.6110  0.0658
  593EMI    H1"11262   6.793   3.654   3.478  1.5519 -3.1846  2.4846
  593EMI    H1"11263   6.886   3.599   3.342 -1.1720  0.9692  2.0517
  593EMI    C2"11264   6.732   3.463   3.401  0.1531 -0.3618  0.5788
  593EMI    H2"11265   6.819   3.417   3.454  2.0658 -0.0499  0.9256
  593EMI    H2"11266   6.635   3.463   3.464  0.9393  1.4083  2.3847
  593EMI    H2"11267   6.722   3.424   3.298 -1.6092  0.4788 -1.0305
  594EMI     N111268   5.257   1.339   4.868 -0.5821  0.1269  0.1147
  594EMI     C211269   5.352   1.270   4.934  0.0306  0.1074 -0.1407
  594EMI     N311270   5.312   1.145   4.939  0.5503 -0.6867 -0.4085
  594EMI     C411271   5.189   1.138   4.883  0.2363  0.6660 -0.2671
  594EMI     C511272   5.153   1.260   4.843  0.0688  0.3790 -0.2590
  594EMI     H211273   5.443   1.315   4.968  1.0143 -1.5707 -2.1130
  594EMI     H411274   5.128   1.045   4.880 -1.2388  2.2928  1.4748
  594EMI     H511275   5.066   1.289   4.789  0.1719 -1.1452  0.5332
  594EMI    C1'11276   5.366   1.030   5.006  0.2317 -0.0558  0.4030
  594EMI    H1'11277   5.465   0.996   4.966  2.9100  0.9126 -0.1191
  594EMI    H1'11278   5.366   1.054   5.114 -0.8892 -0.0802  0.6799
  594EMI    H1'11279   5.298   0.945   4.996 -0.3492  0.2562 -0.7871
  594EMI    C1"11280   5.264   1.474   4.816 -0.3811 -0.2539  0.3885
  594EMI    H1"11281   5.345   1.529   4.865  0.9504 -1.2684 -0.5965
  594EMI    H1"11282   5.169   1.525   4.830  0.8637  0.3787  0.3519
  594EMI    C2"11283   5.291   1.469   4.665 -0.4656 -0.7181  0.3411
  594EMI    H2"11284   5.294   1.569   4.631  0.3597  1.2047  1.5553
  594EMI    H2"11285   5.387   1.425   4.650  0.0949  2.0067 -0.9193
  594EMI    H2"11286   5.215   1.420   4.612 -0.5935  0.9347 -0.0960
  595EMI     N111287   6.699   4.947   0.846  0.0648  0.1618  0.4588
  595EMI     C211288   6.708   4.883   0.962  0.0873 -0.2736 -0.3698
  595EMI     N311289   6.585   4.878   1.018  0.0885  0.2308 -0.8615
  595EMI     C411290   6.500   4.949   0.935  0.1629 -0.3092 -0.2271
  595EMI     C511291   6.572   4.995   0.833  0.1584 -0.2885  0.4967
  595EMI     H211292   6.796   4.837   1.009  0.7945 -2.9862 -0.5321
  595EMI     H411293   6.395   4.968   0.944  0.9576  0.0580  0.5575
  595EMI     H511294   6.523   5.059   0.753  0.5019 -0.0033 -1.2400
  595EMI    C1'11295   6.541   4.839   1.156 -0.0755  0.2138  0.0388
  595EMI    H1'11296   6.435   4.811   1.151 -0.6476  1.3883  1.3961
  595EMI    H1'11297   6.598   4.757   1.197 -0.8113 -0.7522  0.0821
  595EMI    H1'11298   6.537   4.928   1.215  1.2808 -3.2712  0.8219
  595EMI    C1"11299   6.802   4.980   0.744  0.3348  0.3939 -0.3303
  595EMI    H1"11300   6.874   5.053   0.785  0.6598 -0.4978 -0.7556
  595EMI    H1"11301   6.757   5.032   0.653 -2.0517  0.4624  0.0744
  595EMI    C2"11302   6.875   4.854   0.707 -0.4005  0.0763 -0.0769
  595EMI    H2"11303   6.800   4.777   0.687 -0.5948 -0.0718  2.6845
  595EMI    H2"11304   6.937   4.882   0.625  1.3106 -0.2165  1.1760
  595EMI    H2"11305   6.934   4.810   0.784  1.8925 -0.7464  1.1817
  596EMI     N111306   5.263   1.663   2.048  0.4497 -0.1292  0.0015
  596EMI     C211307   5.160   1.722   2.123 -0.0512 -0.3562  0.0985
  596EMI     N311308   5.160   1.854   2.094  0.5099 -1.1557 -0.0174
  596EMI     C411309   5.262   1.876   2.004  0.6319  0.2386  0.6797
  596EMI     C511310   5.324   1.760   1.982  0.5951 -0.4712  0.4971
  596EMI     H211311   5.090   1.672   2.194  0.3915 -2.3000  0.4150
  596EMI     H411312   5.281   1.970   1.945 -2.0024 -2.2571 -0.8260
  596EMI     H511313   5.405   1.752   1.913  0.8060 -0.3899  1.0501
  596EMI    C1'11314   5.059   1.956   2.113 -0.2611  0.0375 -0.1331
  596EMI    H1'11315   5.074   2.021   2.024 -3.0386 -0.7153 -0.2104
  596EMI    H1'11316   4.955   1.921   2.115  3.6554  0.6979  2.3079
  596EMI    H1'11317   5.089   2.000   2.203 -0.3032  0.1362 -0.8364
  596EMI    C1"11318   5.309   1.515   2.050 -0.1903 -0.6169  0.2080
  596EMI    H1"11319   5.314   1.481   1.948 -1.4902 -0.2161  1.3331
  596EMI    H1"11320   5.234   1.449   2.088  1.2459 -0.1436 -0.9356
  596EMI    C2"11321   5.438   1.485   2.121 -0.0940 -0.6075 -0.4099
  596EMI    H2"11322   5.463   1.382   2.101  0.2275 -1.9929 -3.2116
  596EMI    H2"11323   5.520   1.552   2.082 -0.2448  1.1443 -0.5919
  596EMI    H2"11324   5.436   1.487   2.237  0.5704 -2.4849  1.9922
  597EMI     N111325   6.141   1.997   2.463 -0.7217  0.5268  0.2721
  597EMI     C211326   6.066   2.010   2.355 -0.0679  0.2285 -0.3122
  597EMI     N311327   6.134   2.081   2.264 -0.0074 -0.0452  0.2748
  597EMI     C411328   6.253   2.112   2.316 -0.2551  0.2023 -0.8372
  597EMI     C511329   6.260   2.065   2.441  0.0213  0.6630 -0.1865
  597EMI     H211330   5.973   1.965   2.332  0.2302  0.4617 -0.2548
  597EMI     H411331   6.327   2.171   2.274  0.1202 -2.9015  1.1870
  597EMI     H511332   6.343   2.075   2.508 -0.4999  1.6891 -0.9476
  597EMI    C1'11333   6.097   2.126   2.126  0.4388 -0.1465 -0.0570
  597EMI    H1'11334   6.192   2.173   2.082 -1.8797  1.3992 -2.3655
  597EMI    H1'11335   6.062   2.038   2.063 -3.3255 -0.3274 -0.8137
  597EMI    H1'11336   6.019   2.199   2.132  1.3894  0.7733  0.5453
  597EMI    C1"11337   6.114   1.922   2.585  0.3681 -0.3167 -0.3861
  597EMI    H1"11338   6.144   1.976   2.677  0.0119  0.0272  0.2406
  597EMI    H1"11339   6.171   1.830   2.589 -0.6301 -0.5237  0.3710
  597EMI    C2"11340   5.967   1.897   2.599  0.0389 -0.4978 -0.3096
  597EMI    H2"11341   5.910   1.991   2.611 -1.5270 -2.0866 -0.5318
  597EMI    H2"11342   5.942   1.839   2.503 -1.7300 -0.8473 -0.2504
  597EMI    H2"11343   5.957   1.839   2.695 -0.7611  2.5764 -0.6267
  598EMI     N111344   2.033   3.083   4.724 -0.0584 -0.2258 -0.1863
  598EMI     C211345   2.137   3.110   4.647  0.5442  0.0674 -0.0770
  598EMI     N311346   2.107   3.221   4.574  0.2833 -0.4522 -0.4921
  598EMI     C411347   1.980   3.266   4.607  0.5334  0.0745  0.5082
  598EMI     C511348   1.939   3.180   4.701  1.1682  0.0091 -0.0500
  598EMI     H211349   2.225   3.048   4.651  2.9242 -1.6646 -1.1132
  598EMI     H411350   1.942   3.357   4.563 -0.8541  3.3152  0.0561
  598EMI     H511351   1.859   3.180   4.773 -3.1644 -1.2061 -0.3208
  598EMI    C1'11352   2.186   3.295   4.478 -0.6173  0.3659  0.4883
  598EMI    H1'11353   2.148   3.277   4.377  1.3265 -1.9712 -1.4095
  598EMI    H1'11354   2.176   3.397   4.507 -2.0071 -2.6865  0.5683
  598EMI    H1'11355   2.294   3.259   4.484  1.4072 -4.0763  2.8866
  598EMI    C1"11356   2.019   2.983   4.830 -0.6672  0.3747  0.1829
  598EMI    H1"11357   1.997   3.032   4.926  2.7979  1.1724  3.0528
  598EMI    H1"11358   2.113   2.923   4.844 -1.8883 -3.4057 -1.0570
  598EMI    C2"11359   1.904   2.888   4.785 -0.5470 -0.3616  0.1560
  598EMI    H2"11360   1.909   2.855   4.680  0.5896  2.7040 -1.3121
  598EMI    H2"11361   1.912   2.801   4.848  0.0882  0.0932  0.3843
  598EMI    H2"11362   1.812   2.942   4.809  2.4013  0.6702 -1.0774
  599EMI     N111363   1.777   3.588   6.055  0.3296 -0.1837  0.0989
  599EMI     C211364   1.729   3.483   5.984  0.3204  0.3420 -0.2343
  599EMI     N311365   1.603   3.506   5.943  0.2744  0.3424  0.7584
  599EMI     C411366   1.561   3.629   5.989 -0.6496  1.0118  0.3480
  599EMI     C511367   1.670   3.673   6.061 -0.1096  0.5366 -0.3922
  599EMI     H211368   1.782   3.395   5.957  0.7546  0.4166 -0.6953
  599EMI     H411369   1.464   3.676   5.978 -2.1372 -1.2677  1.1798
  599EMI     H511370   1.663   3.768   6.107 -0.2079 -1.7625  0.6690
  599EMI    C1'11371   1.516   3.423   5.861 -0.4565  0.2630 -0.5472
  599EMI    H1'11372   1.541   3.430   5.756  1.4309  0.3734  0.0108
  599EMI    H1'11373   1.525   3.313   5.895 -0.9431  1.0781  0.6379
  599EMI    H1'11374   1.414   3.450   5.873 -2.2708 -0.6512  1.3016
  599EMI    C1"11375   1.906   3.608   6.117  0.0293  0.9520 -0.2039
  599EMI    H1"11376   1.977   3.650   6.043 -0.0663  3.5690  0.9397
  599EMI    H1"11377   1.934   3.505   6.141 -0.4868 -0.3941  0.3338
  599EMI    C2"11378   1.905   3.690   6.248  0.9577 -0.2852  0.1712
  599EMI    H2"11379   1.850   3.785   6.222 -3.2912  1.4495  0.2728
  599EMI    H2"11380   1.863   3.651   6.336 -0.4852  0.4682 -2.0773
  599EMI    H2"11381   2.004   3.721   6.280 -1.9152  3.5915  0.8593
  600EMI     N111382   4.262   4.652   0.198  0.4992 -0.0076  0.5097
  600EMI     C211383   4.264   4.606   0.323  0.6283 -0.3544  0.4523
  600EMI     N311384   4.251   4.700   0.412 -0.3330 -0.7464  0.0245
  600EMI     C411385   4.239   4.817   0.339 -0.2584  0.0616  0.1027
  600EMI     C511386   4.247   4.788   0.209  0.2542 -0.0468  0.2932
  600EMI     H211387   4.284   4.504   0.349  1.2523  0.5887 -1.1765
  600EMI     H411388   4.224   4.921   0.374  0.3704  2.0755  1.6448
  600EMI     H511389   4.233   4.852   0.121 -0.6194  1.0010 -0.8590
  600EMI    C1'11390   4.270   4.696   0.557  0.1899 -1.2398 -1.0460
  600EMI    H1'11391   4.178   4.716   0.605  2.3700 -0.2976  0.8065
  600EMI    H1'11392   4.310   4.601   0.590 -0.1932  0.2570  1.6812
  600EMI    H1'11393   4.343   4.774   0.589 -1.9469 -1.0935  1.9532
  600EMI    C1"11394   4.283   4.579   0.067 -0.5149  0.6320  0.0833
  600EMI    H1"11395   4.384   4.558   0.060 -4.0774 -0.0355  3.0326
  600EMI    H1"11396   4.264   4.650  -0.012 -1.5110  1.3997  2.8703
  600EMI    C2"11397   4.198   4.453   0.043  0.1042 -0.3865 -1.1157
  600EMI    H2"11398   4.226   4.408  -0.054 -1.7178  1.0876 -0.4399
  600EMI    H2"11399   4.228   4.393   0.122 -1.6722 -0.5428  0.0953
  600EMI    H2"11400   4.094   4.469   0.062  0.5990  2.1477 -2.6488
  601EMI     N111401   2.298   2.912   0.578 -0.4552 -0.2378 -0.4667
  601EMI     C211402   2.184   2.881   0.631  0.4803 -0.1416  0.6701
  601EMI     N311403   2.145   2.973   0.717  0.0031 -0.4855  0.1060
  601EMI     C411404   2.237   3.073   0.716 -0.9453  0.0963 -0.6598
  601EMI     C511405   2.344   3.037   0.631  0.0712  0.2914 -0.1707
  601EMI     H211406   2.127   2.792   0.609 -0.2396  1.3104  0.7464
  601EMI     H411407   2.231   3.165   0.779 -3.1945  1.7940 -1.5900
  601EMI     H511408   2.434   3.091   0.606 -1.7147  0.6829 -1.6526
  601EMI    C1'11409   2.023   2.971   0.801 -0.8656  0.1685  0.1085
  601EMI    H1'11410   2.047   2.888   0.858  3.1870 -0.6856 -1.1673
  601EMI    H1'11411   2.013   3.056   0.868 -1.0806  0.6263  1.8376
  601EMI    H1'11412   1.942   2.949   0.728  1.0207 -0.1225  1.7696
  601EMI    C1"11413   2.377   2.827   0.490 -0.3866 -0.4148 -0.4545
  601EMI    H1"11414   2.368   2.721   0.512 -2.0663  0.3163 -1.7141
  601EMI    H1"11415   2.485   2.852   0.500  1.4960  1.8834 -1.4409
  601EMI    C2"11416   2.346   2.846   0.345  0.5179 -0.3899 -0.4541
  601EMI    H2"11417   2.376   2.949   0.324  0.1893  0.3083  0.2274
  601EMI    H2"11418   2.416   2.789   0.287 -0.1292 -1.5778  1.1326
  601EMI    H2"11419   2.242   2.829   0.317  0.3398 -0.7240 -0.4604
  602EMI     N111420   1.462   3.352   4.834  0.1765 -0.2582  0.1884
  602EMI     C211421   1.419   3.467   4.780 -0.0890  0.4609 -0.1754
  602EMI     N311422   1.530   3.545   4.757  0.5715  0.2508 -0.6541
  602EMI     C411423   1.637   3.474   4.781 -0.2048 -0.1704 -0.1872
  602EMI     C511424   1.600   3.354   4.836  1.2176 -0.3306  0.5402
  602EMI     H211425   1.324   3.504   4.754  0.6975 -1.3986  1.8110
  602EMI     H411426   1.738   3.522   4.768  0.9321  0.8160  0.4031
  602EMI     H511427   1.665   3.282   4.868  0.0259  0.3917  0.5786
  602EMI    C1'11428   1.535   3.680   4.704  0.2203  0.2884  0.4673
  602EMI    H1'11429   1.443   3.730   4.707 -0.7401 -1.9231  1.9267
  602EMI    H1'11430   1.600   3.741   4.776  0.9204 -1.3588 -1.0040
  602EMI    H1'11431   1.572   3.681   4.599 -0.9462  0.0945  2.1120
  602EMI    C1"11432   1.381   3.232   4.872  0.0493  0.3922  0.1568
  602EMI    H1"11433   1.448   3.168   4.924 -0.5478  2.9215 -1.8125
  602EMI    H1"11434   1.330   3.194   4.787 -0.8804 -0.5080  0.1015
  602EMI    C2"11435   1.284   3.277   4.979 -0.2934 -0.2627  0.8885
  602EMI    H2"11436   1.331   3.333   5.057  0.3553  2.1479 -0.5604
  602EMI    H2"11437   1.214   3.335   4.924  0.5359  0.1856 -1.8785
  602EMI    H2"11438   1.223   3.196   5.017  0.2946 -1.3608 -3.9568
  603EMI     N111439   0.933   4.637   0.798 -0.2152 -0.4006  0.0127
  603EMI     C211440   0.895   4.537   0.713  0.1481 -0.0496 -0.2185
  603EMI     N311441   0.878   4.421   0.778 -0.0389 -0.0201 -0.1131
  603EMI     C411442   0.902   4.445   0.911 -0.3477  0.2790 -0.2619
  603EMI     C511443   0.930   4.580   0.922 -0.2301 -0.0182  0.2144
  603EMI     H211444   0.888   4.539   0.604 -1.4939 -1.5094  1.6199
  603EMI     H411445   0.886   4.362   0.976  2.0261 -1.2504 -0.3342
  603EMI     H511446   0.965   4.623   1.007 -1.7642 -0.4599 -0.3459
  603EMI    C1'11447   0.836   4.293   0.720  0.4491  0.6604 -0.1893
  603EMI    H1'11448   0.833   4.308   0.613 -2.6227  0.7027  0.3427
  603EMI    H1'11449   0.913   4.217   0.748  0.1992 -2.0152  0.1442
  603EMI    H1'11450   0.737   4.263   0.756  1.4894  2.8560 -2.2259
  603EMI    C1"11451   0.979   4.776   0.772  0.4084  0.1648  0.3780
  603EMI    H1"11452   1.078   4.788   0.730 -0.4054 -0.7772 -2.8080
  603EMI    H1"11453   0.981   4.822   0.872  1.1363  2.3124  2.6391
  603EMI    C2"11454   0.867   4.855   0.695  0.2327 -0.4492 -0.4363
  603EMI    H2"11455   0.844   4.809   0.597  0.8696  0.6264  1.2304
  603EMI    H2"11456   0.772   4.849   0.755  0.9238 -0.7479  1.2542
  603EMI    H2"11457   0.899   4.959   0.684 -0.5806  0.3231 -0.5847
  604EMI     N111458   2.020   1.937   6.066 -0.4931  0.3315 -0.8164
  604EMI     C211459   1.928   1.844   6.035  0.3678  0.2018  0.0860
  604EMI     N311460   1.993   1.727   6.008  0.2627 -0.1341  0.4601
  604EMI     C411461   2.126   1.756   6.013  0.2617 -1.0027  0.2350
  604EMI     C511462   2.147   1.879   6.066  0.2123  0.1212  0.1231
  604EMI     H211463   1.823   1.846   6.035 -1.2024  3.5740  2.9162
  604EMI     H411464   2.208   1.689   5.993 -0.7328 -0.7540  1.9743
  604EMI     H511465   2.245   1.925   6.081  0.6255 -1.2530 -2.9712
  604EMI    C1'11466   1.941   1.595   5.973 -0.1529 -0.0443 -0.5209
  604EMI    H1'11467   1.901   1.578   5.872  0.1454  1.8146 -0.3630
  604EMI    H1'11468   2.031   1.534   5.987  2.6689 -0.2815  0.1981
  604EMI    H1'11469   1.876   1.562   6.056  1.0116  2.3450 -1.2600
  604EMI    C1"11470   2.002   2.081   6.070  0.3585 -0.3715  0.1203
  604EMI    H1"11471   1.927   2.100   5.994  2.1002  1.9142  2.6071
  604EMI    H1"11472   2.092   2.147   6.036  1.2199  1.7930  1.5119
  604EMI    C2"11473   1.961   2.129   6.208 -0.3453 -0.4872 -0.6461
  604EMI    H2"11474   1.875   2.071   6.242 -0.0790  0.2846  2.4852
  604EMI    H2"11475   2.038   2.106   6.276  0.1437  2.3783 -0.5885
  604EMI    H2"11476   1.947   2.234   6.208 -1.6977  2.2680 -0.9253
  605EMI     N111477   0.865   1.513   4.205 -0.4494  0.3799  0.0672
  605EMI     C211478   0.868   1.570   4.329  0.0880 -0.3821  0.2566
  605EMI     N311479   0.744   1.578   4.386  0.2675 -1.0443 -0.4003
  605EMI     C411480   0.664   1.523   4.295 -0.1744  0.4652 -0.1527
  605EMI     C511481   0.735   1.489   4.182 -0.0160  0.2555 -0.4638
  605EMI     H211482   0.965   1.582   4.375  1.0450 -0.8063 -0.9573
  605EMI     H411483   0.559   1.510   4.307 -0.0731 -0.5947  0.4463
  605EMI     H511484   0.707   1.439   4.095  0.5948  1.7900 -0.2383
  605EMI    C1'11485   0.698   1.646   4.504 -0.2280 -0.3535  0.0249
  605EMI    H1'11486   0.717   1.576   4.590  1.5874 -3.1389  0.8119
  605EMI    H1'11487   0.757   1.734   4.514 -2.0022 -0.3685 -2.9145
  605EMI    H1'11488   0.588   1.668   4.509  0.2904 -3.8330 -0.0818
  605EMI    C1"11489   0.969   1.461   4.114 -0.6359  0.4403  0.2415
  605EMI    H1"11490   0.924   1.378   4.059  0.8462  0.2376  0.7214
  605EMI    H1"11491   1.047   1.409   4.165 -2.3107  2.6333  0.7134
  605EMI    C2"11492   1.016   1.562   4.013  0.1554 -0.2059  0.1787
  605EMI    H2"11493   1.064   1.512   3.931 -2.9691  0.2653  2.1920
  605EMI    H2"11494   0.933   1.617   3.978 -0.0272 -1.0366 -0.4362
  605EMI    H2"11495   1.088   1.629   4.062 -0.5288 -1.0071 -0.1356
  606EMI     N111496   0.897   1.614   2.172  0.3939  0.0008  0.5582
  606EMI     C211497   0.958   1.738   2.165 -0.2864  0.4518  0.8718
  606EMI     N311498   1.055   1.743   2.250  0.1950  0.1763  0.5518
  606EMI     C411499   1.055   1.622   2.320  0.4327 -0.3103  0.7776
  606EMI     C511500   0.953   1.545   2.272 -0.3519  0.4032  0.4970
  606EMI     H211501   0.937   1.820   2.098 -2.2596  1.0853  1.4372
  606EMI     H411502   1.123   1.594   2.395 -0.1432  0.1715  0.4466
  606EMI     H511503   0.926   1.451   2.310 -2.5609 -0.8520  2.1248
  606EMI    C1'11504   1.158   1.847   2.260  1.0810  0.9866  0.9234
  606EMI    H1'11505   1.119   1.939   2.230  0.1351 -1.6415  0.2435
  606EMI    H1'11506   1.188   1.855   2.369 -0.9341  3.3836  0.6243
  606EMI    H1'11507   1.239   1.821   2.190 -0.3767 -0.5971  1.3278
  606EMI    C1"11508   0.772   1.571   2.102  0.1530  0.2874  0.0284
  606EMI    H1"11509   0.723   1.661   2.064 -0.2794  2.9253 -0.5005
  606EMI    H1"11510   0.715   1.514   2.179  1.6072 -0.1767  0.4111
  606EMI    C2"11511   0.803   1.471   1.988  0.6278 -0.6642  1.2218
  606EMI    H2"11512   0.877   1.512   1.922  0.6108 -1.0447 -1.0818
  606EMI    H2"11513   0.832   1.378   2.035 -2.2218  0.6199 -1.2824
  606EMI    H2"11514   0.710   1.452   1.934 -1.3246  1.3687 -0.6620
  607EMI     N111515   4.846   4.265   4.318  0.1355  0.3651 -0.2156
  607EMI     C211516   4.948   4.294   4.232 -0.1014  0.2691 -0.3804
  607EMI     N311517   4.914   4.392   4.146  0.3707  0.5225  0.5443
  607EMI     C411518   4.780   4.423   4.172 -0.3030 -0.5153  0.1374
  607EMI     C511519   4.745   4.343   4.274  0.6218 -0.2972 -0.2024
  607EMI     H211520   5.044   4.244   4.238 -0.8149  2.3472  0.5766
  607EMI     H411521   4.717   4.487   4.114 -2.2181 -3.0598  0.0166
  607EMI     H511522   4.645   4.343   4.317 -1.9374 -0.6194 -2.7810
  607EMI    C1'11523   4.987   4.463   4.039 -0.5047  0.0063  0.6043
  607EMI    H1'11524   4.914   4.516   3.987 -0.3649 -0.6258 -0.0148
  607EMI    H1'11525   5.073   4.517   4.068  0.2273 -1.8731 -1.9932
  607EMI    H1'11526   5.023   4.376   3.975  1.0446  2.8051 -0.5739
  607EMI    C1"11527   4.844   4.176   4.436 -0.5423 -0.2604 -0.1095
  607EMI    H1"11528   4.838   4.233   4.529  1.1745  1.3220 -0.7470
  607EMI    H1"11529   4.938   4.120   4.443 -1.3291  3.7723 -0.3540
  607EMI    C2"11530   4.724   4.077   4.430  0.0538  0.4246  0.4103
  607EMI    H2"11531   4.725   4.005   4.513  1.3692 -1.9278 -0.6972
  607EMI    H2"11532   4.633   4.138   4.438 -0.8940  1.4843  0.0248
  607EMI    H2"11533   4.732   4.029   4.337  1.1239 -1.2566  2.0499
  608EMI     N111534   1.696   6.456   0.580 -0.6777  0.1367  0.5815
  608EMI     C211535   1.574   6.393   0.585 -0.5336  0.8566 -0.0111
  608EMI     N311536   1.563   6.310   0.479  0.6484 -0.3884  0.0565
  608EMI     C411537   1.666   6.338   0.393 -0.1068 -0.1668  0.1064
  608EMI     C511538   1.753   6.426   0.458 -0.0546 -0.7564 -0.4392
  608EMI     H211539   1.499   6.397   0.661 -0.4900 -0.3791 -0.4050
  608EMI     H411540   1.686   6.292   0.292  0.4407 -1.4798 -1.8917
  608EMI     H511541   1.845   6.461   0.412  1.4597  1.4390 -2.3114
  608EMI    C1'11542   1.447   6.221   0.448  0.0778 -0.9031  0.1530
  608EMI    H1'11543   1.381   6.219   0.542  0.6439  0.5037  2.0389
  608EMI    H1'11544   1.387   6.240   0.360 -0.5954  0.5648 -0.1669
  608EMI    H1'11545   1.479   6.119   0.430  0.4424  1.5170 -0.5361
  608EMI    C1"11546   1.757   6.557   0.668 -0.0831 -0.8574  0.2365
  608EMI    H1"11547   1.745   6.660   0.624  0.3341  2.1527 -0.5562
  608EMI    H1"11548   1.859   6.531   0.677 -1.8025 -1.8826  0.4120
  608EMI    C2"11549   1.695   6.559   0.805  0.4785 -0.0962  0.4678
  608EMI    H2"11550   1.588   6.555   0.802  3.5259  0.2623  0.3893
  608EMI    H2"11551   1.741   6.483   0.863 -1.4923 -0.3321  0.6200
  608EMI    H2"11552   1.729   6.649   0.862  1.2364 -0.5604 -0.3052
  609EMI     N111553   0.399   1.536   3.588  0.2886  0.1214 -0.9605
  609EMI     C211554   0.531   1.520   3.599  0.2694 -0.5806  0.2335
  609EMI     N311555   0.586   1.490   3.481 -0.3161  0.0399  0.2094
  609EMI     C411556   0.481   1.479   3.393  0.2473  0.0673  0.7282
  609EMI     C511557   0.366   1.509   3.455  0.5511  0.2912  0.1670
  609EMI     H211558   0.585   1.550   3.687 -0.1616  0.1770 -0.3464
  609EMI     H411559   0.471   1.443   3.292 -2.6815  1.4418  0.5390
  609EMI     H511560   0.262   1.497   3.418 -0.5267 -2.1548  2.3758
  609EMI    C1'11561   0.726   1.462   3.444 -0.0902 -0.7891 -0.3570
  609EMI    H1'11562   0.758   1.361   3.481 -0.5522  0.0218 -0.8052
  609EMI    H1'11563   0.729   1.456   3.333 -0.9971  0.0698 -3.5220
  609EMI    H1'11564   0.783   1.541   3.490 -0.2786 -0.3157 -2.0250
  609EMI    C1"11565   0.309   1.598   3.684 -0.6196  0.2603 -0.6658
  609EMI    H1"11566   0.278   1.690   3.637 -0.6680 -1.0378  0.5914
  609EMI    H1"11567   0.359   1.612   3.778 -0.9424  1.6142  1.3323
  609EMI    C2"11568   0.189   1.504   3.717 -0.0902 -0.1155 -0.0783
  609EMI    H2"11569   0.226   1.408   3.758 -1.4445 -1.2832  1.2118
  609EMI    H2"11570   0.132   1.545   3.805 -3.6582  1.8820  0.5533
  609EMI    H2"11571   0.120   1.478   3.642  2.2469 -3.1748  0.7010
  610EMI     N111572   1.959   4.391   3.157  0.0389  0.2265  0.2673
  610EMI     C211573   2.041   4.475   3.227  0.4361  0.3080  0.3862
  610EMI     N311574   2.142   4.524   3.150 -0.9340 -0.5527 -0.1518
  610EMI     C411575   2.135   4.465   3.025  0.5051  0.6554 -0.0900
  610EMI     C511576   2.026   4.383   3.032  0.5078 -0.0617  0.0654
  610EMI     H211577   2.008   4.508   3.325  2.7661  1.0033 -0.2345
  610EMI     H411578   2.206   4.466   2.946  0.0070 -0.9874  2.0285
  610EMI     H511579   1.994   4.318   2.953 -2.0526  0.4666  1.1619
  610EMI    C1'11580   2.243   4.626   3.182 -0.3266 -0.6661 -0.4991
  610EMI    H1'11581   2.198   4.719   3.213 -2.3543  0.2605 -0.9239
  610EMI    H1'11582   2.296   4.580   3.260 -1.4592 -0.3124  0.2729
  610EMI    H1'11583   2.301   4.650   3.089 -1.9611  0.9554 -0.5209
  610EMI    C1"11584   1.832   4.325   3.180  0.1992  0.2517 -0.8753
  610EMI    H1"11585   1.775   4.325   3.085 -1.0770  1.6810  3.7822
  610EMI    H1"11586   1.776   4.369   3.264  0.0454  1.3211  0.5002
  610EMI    C2"11587   1.876   4.182   3.211 -0.1349 -0.0768  0.4923
  610EMI    H2"11588   1.919   4.131   3.129 -0.9786  2.4032 -0.9177
  610EMI    H2"11589   1.941   4.183   3.297  0.7538  1.4071 -0.4706
  610EMI    H2"11590   1.782   4.134   3.228  0.5502 -0.9873  0.2438
  611EMI     N111591   1.845   6.769   4.364 -0.0489 -0.1929  0.0920
  611EMI     C211592   1.973   6.757   4.335  0.1834  0.1382  0.1006
  611EMI     N311593   2.034   6.868   4.375  0.2823  0.0494 -0.3723
  611EMI     C411594   1.945   6.955   4.432  0.0442  0.0247  0.2004
  611EMI     C511595   1.825   6.893   4.414  1.4768 -0.2130 -0.5445
  611EMI     H211596   2.026   6.672   4.296 -0.4604 -1.1399  2.5489
  611EMI     H411597   1.952   7.044   4.488  0.5330 -0.5105 -1.8901
  611EMI     H511598   1.730   6.928   4.458  2.7386  2.7961 -0.1968
  611EMI    C1'11599   2.179   6.905   4.376  0.1736  0.4593  0.9145
  611EMI    H1'11600   2.190   7.004   4.329 -1.7545  2.0254 -1.5360
  611EMI    H1'11601   2.215   6.904   4.479  3.2711  0.8810  1.5916
  611EMI    H1'11602   2.234   6.835   4.315  0.8995  0.5850 -0.4468
  611EMI    C1"11603   1.728   6.674   4.354  0.5540 -0.1108  0.9365
  611EMI    H1"11604   1.767   6.584   4.303  2.3013 -0.4506  0.7796
  611EMI    H1"11605   1.669   6.724   4.278 -1.1456  1.4250  0.0953
  611EMI    C2"11606   1.656   6.650   4.493  0.2349  0.3413  0.4387
  611EMI    H2"11607   1.718   6.575   4.545 -0.9444 -2.5040 -0.4645
  611EMI    H2"11608   1.644   6.750   4.533  0.9720 -1.2655 -1.5771
  611EMI    H2"11609   1.560   6.589   4.485  1.0920 -0.2266 -0.2606
  612EMI     N111610   3.852   2.973   3.195 -0.3766 -0.1359  0.0158
  612EMI     C211611   3.797   3.064   3.105 -0.2027 -0.1335 -0.1171
  612EMI     N311612   3.702   3.140   3.158 -0.3553  0.1537 -0.2864
  612EMI     C411613   3.698   3.103   3.290  0.5367  0.9603 -0.4278
  612EMI     C511614   3.786   3.005   3.311  0.1437  0.1772  0.1059
  612EMI     H211615   3.829   3.065   3.003  1.8029 -0.3106  0.0821
  612EMI     H411616   3.637   3.160   3.364  2.5527 -0.3464  0.9795
  612EMI     H511617   3.812   2.961   3.402 -0.5980  4.7030 -1.7353
  612EMI    C1'11618   3.603   3.230   3.098  0.2789  0.0431 -0.0993
  612EMI    H1'11619   3.615   3.220   2.993  2.9870 -1.7703  0.9027
  612EMI    H1'11620   3.498   3.207   3.122 -0.8379  1.8484  0.5630
  612EMI    H1'11621   3.637   3.329   3.119  0.2464 -0.4090  2.2576
  612EMI    C1"11622   3.973   2.886   3.191 -0.0627 -0.2700 -0.3850
  612EMI    H1"11623   3.956   2.815   3.107 -0.1086 -0.9862 -1.0159
  612EMI    H1"11624   3.972   2.835   3.284  0.5835  0.5147 -0.2750
  612EMI    C2"11625   4.107   2.974   3.189 -0.5128  0.1633 -0.6718
  612EMI    H2"11626   4.178   2.900   3.173 -0.8887  2.3627 -0.0242
  612EMI    H2"11627   4.113   3.041   3.100 -0.8155  1.5850 -0.5560
  612EMI    H2"11628   4.109   3.030   3.283 -0.5713  3.0048 -1.2774
  613EMI     N111629   3.079   3.457   1.187  0.2717  0.6778 -0.1128
  613EMI     C211630   2.988   3.459   1.287 -0.5574  0.0155 -0.5242
  613EMI     N311631   2.868   3.484   1.241  0.1260  0.0515 -0.4141
  613EMI     C411632   2.882   3.512   1.107 -0.2895  0.2541  0.0902
  613EMI     C511633   3.007   3.483   1.071  0.1014 -0.8806  0.1450
  613EMI     H211634   3.016   3.457   1.390 -0.2633  1.6687 -0.2152
  613EMI     H411635   2.802   3.542   1.036 -1.9007 -1.5524  1.4747
  613EMI     H511636   3.052   3.487   0.974 -2.6157 -1.4144 -0.7359
  613EMI    C1'11637   2.741   3.478   1.315  0.3813 -0.7562  0.5021
  613EMI    H1'11638   2.736   3.565   1.379 -2.8320  0.4450 -2.1336
  613EMI    H1'11639   2.662   3.493   1.243  0.3047 -3.2779  0.6902
  613EMI    H1'11640   2.729   3.385   1.375 -1.7515 -0.4116  1.1505
  613EMI    C1"11641   3.221   3.432   1.192  0.2015  0.0363  0.0114
  613EMI    H1"11642   3.260   3.414   1.093 -0.8291  1.3663 -1.7013
  613EMI    H1"11643   3.242   3.349   1.254 -3.3141 -2.6209  0.4785
  613EMI    C2"11644   3.294   3.551   1.250 -0.0954  0.3326 -0.6169
  613EMI    H2"11645   3.403   3.533   1.248  0.7583 -0.7412 -0.5880
  613EMI    H2"11646   3.287   3.636   1.182 -1.0268  0.8379 -0.3949
  613EMI    H2"11647   3.263   3.582   1.348 -1.2377 -0.1727 -2.7761
  614EMI     N111648   0.438   4.356   0.767  0.5467 -0.0113 -0.0281
  614EMI     C211649   0.404   4.247   0.694 -0.4748 -0.0991 -0.3628
  614EMI     N311650   0.461   4.139   0.747 -0.3224 -0.1666 -0.4477
  614EMI     C411651   0.528   4.174   0.860 -0.9035 -0.8071 -0.2436
  614EMI     C511652   0.510   4.308   0.876  0.3703 -0.1223 -0.9010
  614EMI     H211653   0.362   4.251   0.595 -0.3712  0.7676 -0.3220
  614EMI     H411654   0.581   4.114   0.931 -0.2254  1.7953 -0.2233
  614EMI     H511655   0.550   4.363   0.961  0.0243  1.1573  0.1022
  614EMI    C1'11656   0.478   3.999   0.700 -0.4270 -0.4261  0.9633
  614EMI    H1'11657   0.395   3.940   0.741  1.3474  0.8073 -1.7020
  614EMI    H1'11658   0.485   4.001   0.585 -0.0001  1.3893 -1.8554
  614EMI    H1'11659   0.566   3.954   0.740 -0.6122 -3.5355  1.4927
  614EMI    C1"11660   0.433   4.502   0.747 -0.1615  0.3215 -0.5208
  614EMI    H1"11661   0.417   4.531   0.855  0.2094 -1.3585  1.5218
  614EMI    H1"11662   0.340   4.528   0.692 -0.2466 -0.1929  0.7110
  614EMI    C2"11663   0.544   4.583   0.686 -0.5540  0.3194 -0.1093
  614EMI    H2"11664   0.549   4.558   0.581 -1.6173 -1.2995 -1.2323
  614EMI    H2"11665   0.530   4.689   0.710 -0.3182  0.9291  2.3879
  614EMI    H2"11666   0.639   4.536   0.720  0.6676 -1.9185  2.2690
  615EMI     N111667   1.000   0.987   2.692  0.5862 -0.1106 -0.6102
  615EMI     C211668   1.093   1.071   2.645 -0.0283 -0.6351  0.2667
  615EMI     N311669   1.143   1.025   2.531 -0.0330 -0.2734  0.3894
  615EMI     C411670   1.088   0.903   2.510 -0.0311  0.1875 -0.7914
  615EMI     C511671   1.000   0.873   2.608 -0.2780 -0.4527 -0.2330
  615EMI     H211672   1.130   1.170   2.677  1.9744 -0.3623 -1.5652
  615EMI     H411673   1.120   0.834   2.430  3.6145  2.9739  1.2161
  615EMI     H511674   0.939   0.788   2.613 -0.2820 -1.0152  1.7354
  615EMI    C1'11675   1.240   1.088   2.437 -1.0625  0.1421 -0.3495
  615EMI    H1'11676   1.302   1.163   2.485 -0.6302  2.0993  2.1509
  615EMI    H1'11677   1.305   1.006   2.402  0.2878 -1.1763 -0.1511
  615EMI    H1'11678   1.187   1.132   2.355 -1.6919  1.4118 -1.0657
  615EMI    C1"11679   0.937   0.991   2.824 -0.1245 -0.0245 -0.3488
  615EMI    H1"11680   0.936   1.100   2.845  1.8350  1.0200 -0.2334
  615EMI    H1"11681   0.996   0.939   2.904  1.7984 -0.2478 -1.8899
  615EMI    C2"11682   0.784   0.960   2.816  0.1565  0.6692  0.0283
  615EMI    H2"11683   0.730   1.035   2.879 -2.3138 -0.0383 -1.3853
  615EMI    H2"11684   0.757   0.983   2.717  2.1336  3.3000 -1.5631
  615EMI    H2"11685   0.758   0.859   2.848 -1.9547 -1.0602  1.1600
  616EMI     N111686   0.756   6.006   5.843 -0.5854  0.1811 -0.1162
  616EMI     C211687   0.624   6.004   5.856 -0.4079 -0.1929 -0.8085
  616EMI     N311688   0.572   6.105   5.790 -0.1389  0.6970 -0.1404
  616EMI     C411689   0.677   6.176   5.727  0.3638 -0.2425  0.4030
  616EMI     C511690   0.790   6.118   5.767 -0.6456  0.4387 -0.9338
  616EMI     H211691   0.577   5.933   5.915  2.7068 -1.0715 -1.2055
  616EMI     H411692   0.660   6.270   5.672 -0.6737 -1.0138  1.0855
  616EMI     H511693   0.889   6.158   5.752  1.6065  0.7852  1.5677
  616EMI    C1'11694   0.428   6.153   5.773  0.1774  0.0251  0.8987
  616EMI    H1'11695   0.412   6.240   5.836  0.4273  1.0554  1.1068
  616EMI    H1'11696   0.421   6.180   5.673  1.1121 -2.1141 -2.3546
  616EMI    H1'11697   0.354   6.076   5.798  1.6664 -0.1470  0.1900
  616EMI    C1"11698   0.871   5.925   5.894  0.1261  0.0354 -0.0705
  616EMI    H1"11699   0.857   5.887   5.996 -0.2078  2.7942 -1.1866
  616EMI    H1"11700   0.961   5.995   5.893 -1.9847  0.8945 -1.2416
  616EMI    C2"11701   0.883   5.801   5.801 -0.7172 -0.0371 -0.4269
  616EMI    H2"11702   0.908   5.835   5.701 -2.0772 -0.2437  1.3597
  616EMI    H2"11703   0.957   5.723   5.843 -0.9529  1.3037  0.9556
  616EMI    H2"11704   0.782   5.753   5.796  1.0539  0.2602 -0.5377
  617EMI     N111705   1.393   4.908   5.743  0.4440 -0.6322 -0.6534
  617EMI     C211706   1.432   5.036   5.752 -0.2146 -0.7495  0.4493
  617EMI     N311707   1.560   5.054   5.712  0.0227 -0.7643  0.1253
  617EMI     C411708   1.594   4.934   5.656  0.0343 -0.2359 -0.1168
  617EMI     C511709   1.495   4.846   5.686  0.4575 -0.1150  0.2688
  617EMI     H211710   1.372   5.111   5.791  4.3723 -1.5422 -0.3218
  617EMI     H411711   1.693   4.913   5.610 -0.0500 -2.4551 -0.1461
  617EMI     H511712   1.490   4.745   5.655 -0.4487  0.5674 -1.8962
  617EMI    C1'11713   1.661   5.163   5.740 -0.1786  0.6144  0.2663
  617EMI    H1'11714   1.682   5.226   5.658 -3.0533 -0.5800  1.3780
  617EMI    H1'11715   1.617   5.221   5.820 -0.3049  0.3807  1.5121
  617EMI    H1'11716   1.748   5.109   5.778 -0.5547  2.2491  1.4367
  617EMI    C1"11717   1.259   4.850   5.781 -0.0636  0.0861  0.5366
  617EMI    H1"11718   1.185   4.902   5.717  2.1619  0.1393  0.5170
  617EMI    H1"11719   1.244   4.878   5.890 -1.8973 -1.5719 -1.3720
  617EMI    C2"11720   1.247   4.698   5.777 -0.0089 -0.6769 -0.0715
  617EMI    H2"11721   1.151   4.659   5.795  0.2939 -0.7016 -1.7542
  617EMI    H2"11722   1.275   4.671   5.673 -1.5785 -2.1230 -0.3739
  617EMI    H2"11723   1.318   4.658   5.850  0.5137 -2.0279  1.8970
  618EMI     N111724   3.489   6.342   0.776  0.1007 -0.4738  0.0776
  618EMI     C211725   3.546   6.375   0.892 -0.2290  0.4898  0.1530
  618EMI     N311726   3.485   6.484   0.944 -0.5019  0.2004 -0.8900
  618EMI     C411727   3.379   6.515   0.858 -0.1474 -0.0151 -0.3370
  618EMI     C511728   3.383   6.434   0.752  0.0589  0.7157  0.1612
  618EMI     H211729   3.629   6.328   0.934 -0.0490 -0.6616 -1.3629
  618EMI     H411730   3.305   6.593   0.876 -1.9982 -1.2860  1.4842
  618EMI     H511731   3.320   6.429   0.670 -1.2446 -0.7455  0.7490
  618EMI    C1'11732   3.498   6.535   1.081  0.0787 -0.2149  0.0697
  618EMI    H1'11733   3.393   6.560   1.124 -0.0815  2.3438  1.1151
  618EMI    H1'11734   3.554   6.464   1.145 -0.9311 -0.8051 -3.5479
  618EMI    H1'11735   3.556   6.627   1.092 -0.2446 -0.1705 -1.0007
  618EMI    C1"11736   3.525   6.243   0.676  0.2492 -0.1127  0.9619
  618EMI    H1"11737   3.572   6.303   0.593  1.4910  0.3259  1.1309
  618EMI    H1"11738   3.441   6.185   0.628  0.6822  0.3065 -0.6425
  618EMI    C2"11739   3.637   6.159   0.729 -0.0250  1.4012  0.8748
  618EMI    H2"11740   3.603   6.096   0.811  2.0782 -1.6652 -1.0499
  618EMI    H2"11741   3.680   6.090   0.650 -0.1593  2.1408 -2.6926
  618EMI    H2"11742   3.722   6.230   0.759  0.4696 -1.6837  0.9274
  619EMI     N111743   2.313   2.546   4.818  0.1325  0.5617 -0.3453
  619EMI     C211744   2.391   2.597   4.726 -0.0249  0.2430 -0.2739
  619EMI     N311745   2.484   2.664   4.789 -0.3637  0.5838 -0.4399
  619EMI     C411746   2.467   2.655   4.926 -1.1412 -0.4228 -0.0157
  619EMI     C511747   2.357   2.578   4.943  0.0926  0.2824  0.7396
  619EMI     H211748   2.384   2.585   4.615  0.9841  1.6350 -4.1369
  619EMI     H411749   2.527   2.699   5.006 -0.0910  0.6498  2.7483
  619EMI     H511750   2.307   2.546   5.040 -0.9860  2.1890  2.2457
  619EMI    C1'11751   2.585   2.748   4.735 -1.0403  0.1745 -0.7718
  619EMI    H1'11752   2.592   2.848   4.788  0.7052  1.1876  0.7444
  619EMI    H1'11753   2.681   2.709   4.750 -0.2130 -0.6638 -0.9985
  619EMI    H1'11754   2.587   2.756   4.631 -0.4894 -0.2632  0.9710
  619EMI    C1"11755   2.209   2.440   4.789  0.6695  0.0703 -0.0255
  619EMI    H1"11756   2.251   2.343   4.823  0.3511 -0.3207  0.6323
  619EMI    H1"11757   2.192   2.435   4.678 -1.0231  0.1916  0.5993
  619EMI    C2"11758   2.084   2.494   4.852  0.2909 -0.3360  0.1066
  619EMI    H2"11759   2.098   2.503   4.959  0.9089  0.2960  1.5230
  619EMI    H2"11760   2.056   2.587   4.803 -1.8044 -0.6792  0.8730
  619EMI    H2"11761   2.003   2.421   4.824  0.7418 -1.4576  2.1809
  620EMI     N111762   5.018   4.395   2.857 -0.2473  0.4426 -0.3724
  620EMI     C211763   4.894   4.361   2.802  0.0316 -0.2472 -0.6809
  620EMI     N311764   4.833   4.264   2.872 -0.6049  0.0414  0.3368
  620EMI     C411765   4.913   4.239   2.979  0.4631  0.4931 -0.6932
  620EMI     C511766   5.022   4.316   2.978 -0.4236  0.5071  0.1543
  620EMI     H211767   4.851   4.412   2.713  1.8175  1.2674 -1.1106
  620EMI     H411768   4.895   4.159   3.051 -1.1372 -0.1835  0.2263
  620EMI     H511769   5.099   4.317   3.053  1.9516 -0.3492 -0.4740
  620EMI    C1'11770   4.696   4.204   2.834 -0.0607 -0.2056  0.3827
  620EMI    H1'11771   4.709   4.094   2.827 -2.1900 -1.1037 -3.1359
  620EMI    H1'11772   4.621   4.217   2.907  0.3248  1.1474 -1.7447
  620EMI    H1'11773   4.654   4.239   2.743 -2.7509  0.3012 -0.4431
  620EMI    C1"11774   5.120   4.494   2.811 -0.5956 -0.3801  0.5671
  620EMI    H1"11775   5.136   4.490   2.700  0.7272 -0.1405 -0.6215
  620EMI    H1"11776   5.213   4.482   2.869  0.5365  2.0785  0.7453
  620EMI    C2"11777   5.074   4.638   2.852  0.5425 -0.5099 -0.2555
  620EMI    H2"11778   5.062   4.644   2.958 -0.6388 -0.4196  1.6927
  620EMI    H2"11779   5.153   4.715   2.835  2.6072 -0.6973 -0.1411
  620EMI    H2"11780   4.979   4.657   2.804 -4.4448  0.0614 -1.1551
  621EMI     N111781   2.070   5.907   5.316  0.6110  0.1252 -0.0584
  621EMI     C211782   2.197   5.864   5.307  0.6259 -0.2373 -0.2015
  621EMI     N311783   2.280   5.971   5.322 -0.4207  0.8046  0.3820
  621EMI     C411784   2.210   6.082   5.350  0.1281  0.5125 -0.6794
  621EMI     C511785   2.082   6.046   5.337 -0.1748 -0.0202 -0.5041
  621EMI     H211786   2.235   5.760   5.314 -0.0917 -0.0042  2.5045
  621EMI     H411787   2.250   6.180   5.377 -0.0227  1.3651  2.9499
  621EMI     H511788   1.994   6.106   5.351  0.0271 -1.8304 -0.0285
  621EMI    C1'11789   2.429   5.970   5.334 -0.3450 -0.1660 -0.0567
  621EMI    H1'11790   2.459   5.891   5.408  0.1690  1.8536  0.9371
  621EMI    H1'11791   2.458   5.939   5.236  0.0068  1.2407  1.0934
  621EMI    H1'11792   2.476   6.067   5.346 -1.1030 -0.1912 -0.9271
  621EMI    C1"11793   1.942   5.831   5.323 -0.3534  0.3224  0.0555
  621EMI    H1"11794   1.880   5.865   5.409 -0.3219  0.5942 -2.3207
  621EMI    H1"11795   1.979   5.731   5.339  2.4885  0.1722  1.3545
  621EMI    C2"11796   1.877   5.847   5.186  0.8534 -0.6871  0.4240
  621EMI    H2"11797   1.926   5.793   5.108 -3.2782  3.0607 -0.4768
  621EMI    H2"11798   1.775   5.805   5.189 -2.0259 -0.6708  3.9494
  621EMI    H2"11799   1.871   5.958   5.160 -0.3308  3.1614 -1.2027
  622EMI     N111800   5.234   2.474   6.779 -0.4091 -0.3495  0.4198
  622EMI     C211801   5.319   2.494   6.881  0.0258  0.3843  0.0207
  622EMI     N311802   5.274   2.583   6.966 -0.3191  0.2877 -0.5721
  622EMI     C411803   5.154   2.630   6.916 -0.4736 -0.0331  0.1442
  622EMI     C511804   5.133   2.563   6.802  0.3809  0.1083  0.0853
  622EMI     H211805   5.408   2.435   6.890 -0.9716 -0.0398 -0.4208
  622EMI     H411806   5.095   2.706   6.969  0.9336  1.1124  1.7476
  622EMI     H511807   5.053   2.578   6.729  1.0870  0.6620 -0.2570
  622EMI    C1'11808   5.330   2.615   7.098  0.3022  0.7140  0.3566
  622EMI    H1'11809   5.428   2.627   7.083 -1.0739 -0.2277  3.5726
  622EMI    H1'11810   5.294   2.706   7.137  0.3908 -2.5776  0.2673
  622EMI    H1'11811   5.302   2.538   7.170  0.2023 -0.4617  0.8842
  622EMI    C1"11812   5.233   2.367   6.676  0.3155 -0.0418  1.2745
  622EMI    H1"11813   5.323   2.379   6.616 -0.2216 -0.4759 -1.8735
  622EMI    H1"11814   5.157   2.378   6.603  0.1939  0.9012  0.6791
  622EMI    C2"11815   5.229   2.225   6.733 -0.1893 -0.1244  0.4722
  622EMI    H2"11816   5.143   2.215   6.801 -1.0961 -0.0284  1.1249
  622EMI    H2"11817   5.217   2.147   6.656 -2.4187 -1.4285  2.9145
  622EMI    H2"11818   5.314   2.212   6.794 -1.3370  0.7930  0.0973
  623EMI     N111819   1.432   4.674   2.419  0.1813  0.0714 -0.4618
  623EMI     C211820   1.520   4.579   2.464  0.7757 -0.0955 -0.8543
  623EMI     N311821   1.458   4.513   2.560  0.3831 -0.4149  0.2195
  623EMI     C411822   1.326   4.550   2.564  0.0221  0.4752  0.6909
  623EMI     C511823   1.305   4.650   2.479  0.4817  0.2050  0.3464
  623EMI     H211824   1.613   4.536   2.420  1.6377  0.0789  0.0642
  623EMI     H411825   1.250   4.494   2.627  2.2534  0.4942 -1.9519
  623EMI     H511826   1.213   4.703   2.467  0.8155  1.6766 -0.6450
  623EMI    C1'11827   1.508   4.433   2.670 -0.2791 -0.0555 -0.0649
  623EMI    H1'11828   1.434   4.359   2.682  2.3964  2.3850 -0.1684
  623EMI    H1'11829   1.609   4.396   2.650  2.1258 -1.1967 -0.3317
  623EMI    H1'11830   1.511   4.491   2.757  0.0852  0.8985 -4.3780
  623EMI    C1"11831   1.452   4.761   2.301 -0.1128  0.8479 -0.2356
  623EMI    H1"11832   1.351   4.800   2.272  0.8720  1.3233  2.8521
  623EMI    H1"11833   1.501   4.697   2.224  1.4489  1.2180  0.6565
  623EMI    C2"11834   1.541   4.878   2.353 -0.1182 -0.3080  0.2357
  623EMI    H2"11835   1.495   4.925   2.440  0.9472 -0.8567 -0.5004
  623EMI    H2"11836   1.640   4.834   2.386 -0.1564 -0.5378 -0.9069
  623EMI    H2"11837   1.559   4.954   2.276 -2.2120 -2.0581 -1.0964
  624EMI     N111838   4.861   6.458   0.762  0.5832  0.9523  0.4253
  624EMI     C211839   4.743   6.519   0.765  0.4657  0.0564  0.3078
  624EMI     N311840   4.652   6.431   0.808  0.0535  0.1197 -0.2854
  624EMI     C411841   4.715   6.317   0.848  0.1612 -0.5335 -0.1743
  624EMI     C511842   4.845   6.332   0.813 -0.2795  0.0167 -0.0688
  624EMI     H211843   4.710   6.610   0.730  1.3391  0.0512  2.6413
  624EMI     H411844   4.670   6.230   0.889  0.7059 -0.0517  1.1261
  624EMI     H511845   4.927   6.253   0.827  1.9615 -1.4384  0.1996
  624EMI    C1'11846   4.502   6.454   0.817 -0.3682  0.1482 -0.0465
  624EMI    H1'11847   4.490   6.503   0.914 -0.1136 -0.9077 -0.6314
  624EMI    H1'11848   4.458   6.513   0.737  2.3870 -0.3488 -0.5616
  624EMI    H1'11849   4.451   6.358   0.834  0.5186 -1.3949 -0.2619
  624EMI    C1"11850   4.990   6.507   0.719 -0.4990 -0.1039  0.5995
  624EMI    H1"11851   4.998   6.523   0.612  1.0292 -4.1583  2.1885
  624EMI    H1"11852   5.074   6.444   0.748 -2.8451 -3.6118 -1.4231
  624EMI    C2"11853   5.028   6.646   0.783  0.1467 -0.3231  0.5580
  624EMI    H2"11854   4.976   6.728   0.736  2.0946  2.7880 -2.8735
  624EMI    H2"11855   5.018   6.644   0.892  2.5237  0.0517 -1.2562
  624EMI    H2"11856   5.136   6.660   0.760 -2.0720 -1.0589  2.9999
  625EMI     N111857   1.536   0.212   0.829 -0.0274  0.3886  0.3047
  625EMI     C211858   1.474   0.300   0.747  0.2323 -0.4833  0.1456
  625EMI     N311859   1.350   0.319   0.787 -0.0747  0.3026  0.1008
  625EMI     C411860   1.327   0.231   0.890  0.1682  0.7046  0.2933
  625EMI     C511861   1.442   0.165   0.914 -0.0805  0.7299  0.2366
  625EMI     H211862   1.506   0.356   0.662  1.9568  2.3360 -0.4695
  625EMI     H411863   1.234   0.221   0.936  1.1828  2.3772 -1.8342
  625EMI     H511864   1.459   0.091   0.997 -1.8103 -0.5677  0.3107
  625EMI    C1'11865   1.251   0.415   0.735  0.6487  0.3154  0.2944
  625EMI    H1'11866   1.228   0.495   0.809  0.2749  1.1973  0.7494
  625EMI    H1'11867   1.284   0.474   0.647  2.5698 -0.5776  1.0512
  625EMI    H1'11868   1.157   0.350   0.731  1.2505 -2.0930 -1.9844
  625EMI    C1"11869   1.666   0.148   0.820 -0.0978 -0.5637  0.4921
  625EMI    H1"11870   1.649   0.075   0.736 -0.3286 -2.2823 -1.7976
  625EMI    H1"11871   1.704   0.102   0.914  1.0789 -2.4801 -0.6043
  625EMI    C2"11872   1.773   0.248   0.779 -0.0684  0.0913  0.3697
  625EMI    H2"11873   1.775   0.331   0.852 -1.2850 -0.2827 -0.5571
  625EMI    H2"11874   1.870   0.204   0.774 -1.5034  1.1581  1.8732
  625EMI    H2"11875   1.749   0.289   0.677  0.8127 -2.4941 -2.3403
  626EMI     N111876   4.835   1.055   4.968  0.0177 -0.5607  0.0178
  626EMI     C211877   4.788   1.157   4.894 -1.0483  0.2293 -0.7078
  626EMI     N311878   4.825   1.273   4.951  0.0337  1.1610 -0.3378
  626EMI     C411879   4.904   1.244   5.063  0.1081 -0.5398 -0.7792
  626EMI     C511880   4.912   1.109   5.070 -0.1154 -0.1117 -0.2815
  626EMI     H211881   4.730   1.148   4.807  1.8399  2.2958 -0.5613
  626EMI     H411882   4.946   1.316   5.129 -1.1020  0.7394  0.5785
  626EMI     H511883   4.966   1.044   5.138  1.5181  0.0045  0.2211
  626EMI    C1'11884   4.801   1.408   4.905  0.1512 -0.9406 -0.6305
  626EMI    H1'11885   4.756   1.473   4.982 -0.6447  1.4916 -3.0111
  626EMI    H1'11886   4.890   1.458   4.885  2.4471 -1.3967 -0.1134
  626EMI    H1'11887   4.738   1.409   4.810  2.2754  0.6119 -0.3299
  626EMI    C1"11888   4.820   0.908   4.941  0.6855  0.6523  0.3513
  626EMI    H1"11889   4.721   0.874   4.964 -3.1672 -0.0007 -1.3090
  626EMI    H1"11890   4.892   0.865   5.008 -3.3969 -1.3914  0.9813
  626EMI    C2"11891   4.847   0.866   4.801  0.3000  0.0156 -0.4206
  626EMI    H2"11892   4.775   0.899   4.727 -0.8818 -0.9938 -0.6586
  626EMI    H2"11893   4.941   0.905   4.775  1.0290 -3.7166  0.0597
  626EMI    H2"11894   4.852   0.759   4.801 -0.2711  0.2292 -0.1719
  627EMI     N111895   3.504   0.225   6.678 -1.0799 -0.0736  0.1473
  627EMI     C211896   3.624   0.272   6.724  0.0545  0.4699 -0.0599
  627EMI     N311897   3.714   0.267   6.625  0.0392 -0.6822 -0.3077
  627EMI     C411898   3.653   0.223   6.514  0.6738  0.3460 -0.2669
  627EMI     C511899   3.527   0.193   6.545 -0.0205  0.1763 -1.0245
  627EMI     H211900   3.637   0.324   6.815 -0.7927 -0.3141  1.7947
  627EMI     H411901   3.702   0.223   6.418  0.8114  1.6848  3.0486
  627EMI     H511902   3.453   0.168   6.469 -0.8916 -0.7858 -0.6703
  627EMI    C1'11903   3.859   0.309   6.635 -0.6731  0.5164  0.8638
  627EMI    H1'11904   3.891   0.372   6.547 -1.7509  1.3064 -1.0952
  627EMI    H1'11905   3.856   0.365   6.730 -0.0021 -1.3811  0.3054
  627EMI    H1'11906   3.928   0.233   6.634  1.0664 -0.3118  2.4483
  627EMI    C1"11907   3.363   0.233   6.740 -0.1006  0.2347 -0.5030
  627EMI    H1"11908   3.376   0.286   6.835 -1.3305  2.9872 -4.2572
  627EMI    H1"11909   3.331   0.133   6.761  1.2065  0.4602 -1.7155
  627EMI    C2"11910   3.256   0.301   6.658 -0.6026  0.9299 -0.2181
  627EMI    H2"11911   3.271   0.407   6.662  1.6300 -1.0099  0.0606
  627EMI    H2"11912   3.241   0.268   6.557  0.1761  0.0107  3.7116
  627EMI    H2"11913   3.165   0.268   6.706  1.4972  0.8992  2.1120
  628EMI     N111914   1.564   6.051   0.939 -0.0534  0.0382  0.5673
  628EMI     C211915   1.658   5.962   0.895 -0.0768  0.1438  0.7054
  628EMI     N311916   1.752   6.038   0.830  0.3005 -0.1580 -0.2376
  628EMI     C411917   1.708   6.168   0.821 -0.2541  1.1739  0.8779
  628EMI     C511918   1.594   6.178   0.891  0.4875 -0.2984  0.4853
  628EMI     H211919   1.654   5.863   0.916 -1.9728  2.4750  1.4223
  628EMI     H411920   1.757   6.243   0.767 -1.6085  1.7654  1.1407
  628EMI     H511921   1.536   6.272   0.902  0.6090 -1.4733  0.9802
  628EMI    C1'11922   1.875   5.996   0.759  0.7186  0.0079  0.0063
  628EMI    H1'11923   1.896   5.892   0.774 -0.6399  2.3502  0.2777
  628EMI    H1'11924   1.849   6.019   0.654 -0.2554  1.6968 -2.4831
  628EMI    H1'11925   1.961   6.056   0.794 -2.0574 -0.1958  0.3075
  628EMI    C1"11926   1.438   6.021   1.017  0.3590 -0.2047 -0.2721
  628EMI    H1"11927   1.355   6.039   0.952 -2.2381 -1.9903  1.8072
  628EMI    H1"11928   1.431   6.087   1.102  2.1518 -0.6685 -1.1810
  628EMI    C2"11929   1.434   5.874   1.057 -0.3610  0.2666 -0.1774
  628EMI    H2"11930   1.332   5.860   1.093  1.3503  2.0183 -2.4410
  628EMI    H2"11931   1.443   5.807   0.971  3.1834  0.3237  2.8233
  628EMI    H2"11932   1.510   5.861   1.141  0.5626  0.3581  0.4837
  629EMI     N111933   5.225   4.913   1.318 -0.5355 -0.5447 -0.6095
  629EMI     C211934   5.174   5.029   1.361  0.5681 -0.2053 -0.5151
  629EMI     N311935   5.169   5.026   1.499 -0.1672  0.5537 -0.2522
  629EMI     C411936   5.219   4.904   1.537  0.2375  0.1623  0.1922
  629EMI     C511937   5.247   4.835   1.428 -0.0164 -0.4538  0.1440
  629EMI     H211938   5.149   5.108   1.293  0.0635 -0.5611  1.2508
  629EMI     H411939   5.241   4.874   1.638 -1.6984 -0.3395  2.0124
  629EMI     H511940   5.287   4.737   1.435  2.2589  2.1065 -0.9795
  629EMI    C1'11941   5.124   5.127   1.599  0.0751  0.4690 -0.1298
  629EMI    H1'11942   5.186   5.212   1.587  0.5270 -3.6016  3.0553
  629EMI    H1'11943   5.020   5.151   1.580  0.0527 -1.5629  1.5252
  629EMI    H1'11944   5.137   5.084   1.698 -1.0739 -0.2911 -0.4746
  629EMI    C1"11945   5.245   4.872   1.181 -0.3603  0.2445 -0.1458
  629EMI    H1"11946   5.345   4.833   1.171 -1.6076  0.9759  1.4362
  629EMI    H1"11947   5.220   4.952   1.109  1.6617  1.4751 -1.4497
  629EMI    C2"11948   5.150   4.757   1.141 -0.4049 -0.0445  0.1752
  629EMI    H2"11949   5.173   4.727   1.031  2.1269 -0.9862 -1.2119
  629EMI    H2"11950   5.169   4.673   1.204 -3.0168 -0.4432 -0.7589
  629EMI    H2"11951   5.045   4.791   1.145  2.6546  0.0992  0.3044
  630EMI     N111952   5.717   5.644   0.003  0.1464 -0.0728  0.5216
  630EMI     C211953   5.725   5.767   0.052  0.1986  0.2295 -0.4274
  630EMI     N311954   5.752   5.764   0.182 -0.1067  0.0777  0.7721
  630EMI     C411955   5.768   5.632   0.211 -0.7124 -0.3527 -0.5295
  630EMI     C511956   5.737   5.554   0.108 -0.6889  0.5528  0.1413
  630EMI     H211957   5.726   5.854  -0.007 -0.9753 -0.0242 -1.0836
  630EMI     H411958   5.810   5.590   0.296  1.4654  0.5585  3.8948
  630EMI     H511959   5.746   5.443   0.103  1.5419 -1.7103  1.2425
  630EMI    C1'11960   5.786   5.872   0.277  0.1280 -0.9552 -0.4368
  630EMI    H1'11961   5.872   5.918   0.232 -1.3469  0.9294 -0.1437
  630EMI    H1'11962   5.702   5.947   0.290  2.2554  0.0849  0.2433
  630EMI    H1'11963   5.793   5.828   0.380 -3.3696  1.1179  1.7833
  630EMI    C1"11964   5.694   5.593  -0.139 -0.0861 -0.1557  0.3920
  630EMI    H1"11965   5.643   5.670  -0.205 -1.5898 -0.0232 -0.4332
  630EMI    H1"11966   5.630   5.511  -0.134  0.0244  0.0814 -3.2791
  630EMI    C2"11967   5.817   5.527  -0.206  0.4523  0.0656 -0.6481
  630EMI    H2"11968   5.878   5.464  -0.142  0.8760 -1.3327  1.7443
  630EMI    H2"11969   5.784   5.458  -0.287 -1.3650  1.4898  0.5076
  630EMI    H2"11970   5.874   5.605  -0.251 -3.7732  1.1504  0.1648
  631EMI     N111971   4.939   2.494   5.947  0.4717 -0.5879 -0.3474
  631EMI     C211972   5.065   2.497   5.999 -0.0211  1.0071 -0.0792
  631EMI     N311973   5.065   2.522   6.134  0.1777  0.4466 -0.8161
  631EMI     C411974   4.937   2.572   6.159 -0.5520 -0.3619  0.0533
  631EMI     C511975   4.859   2.544   6.048  0.2239 -0.1914  0.3286
  631EMI     H211976   5.150   2.461   5.952  0.4645 -1.8467 -1.0869
  631EMI     H411977   4.893   2.622   6.242  0.3118 -2.4432  0.7383
  631EMI     H511978   4.751   2.556   6.030 -2.7484  1.3403 -0.8501
  631EMI    C1'11979   5.163   2.512   6.241  0.4432  0.5735 -0.2312
  631EMI    H1'11980   5.247   2.572   6.215 -1.2591  0.2142 -1.4601
  631EMI    H1'11981   5.140   2.546   6.342 -0.4829  0.0931  0.6011
  631EMI    H1'11982   5.180   2.409   6.251  0.0515  2.4798 -0.8176
  631EMI    C1"11983   4.888   2.446   5.820 -0.2307  0.3194 -0.2293
  631EMI    H1"11984   4.782   2.428   5.837 -1.6129  0.2701  0.9992
  631EMI    H1"11985   4.944   2.356   5.786  1.7109  3.1616  1.7070
  631EMI    C2"11986   4.911   2.561   5.716  0.3021 -0.1395  1.0750
  631EMI    H2"11987   5.020   2.574   5.709  0.1938  1.1290 -0.9683
  631EMI    H2"11988   4.883   2.532   5.622  4.7431  1.1323  1.6222
  631EMI    H2"11989   4.868   2.653   5.760 -0.4156  0.8712  0.3402
  632EMI     N111990   1.861   3.559   5.511 -0.8371  0.3798  0.3957
  632EMI     C211991   1.793   3.651   5.437 -0.0737  0.2601  0.1986
  632EMI     N311992   1.676   3.680   5.504  0.1440 -0.7565 -0.4127
  632EMI     C411993   1.666   3.599   5.612 -0.0387 -0.0038  0.4191
  632EMI     C511994   1.776   3.524   5.615  0.7914 -0.6584 -0.1054
  632EMI     H211995   1.829   3.708   5.352  0.7643 -0.5732 -2.7028
  632EMI     H411996   1.579   3.591   5.675  0.9588  0.3610  0.7427
  632EMI     H511997   1.792   3.440   5.687  0.5939 -1.4809  2.2063
  632EMI    C1'11998   1.586   3.801   5.488 -1.1629  0.0095 -0.4279
  632EMI    H1'11999   1.486   3.764   5.505 -0.5790  1.4931 -1.6694
  632EMI    H1'12000   1.608   3.895   5.541 -2.1116 -0.1901 -0.6136
  632EMI    H1'12001   1.595   3.824   5.382  0.6868  1.8256  1.0310
  632EMI    C1"12002   1.989   3.494   5.480  0.5387  0.4586 -0.2215
  632EMI    H1"12003   1.967   3.389   5.445 -0.3650 -0.7982  0.3179
  632EMI    H1"12004   2.054   3.474   5.557 -0.9066 -0.7026 -2.1276
  632EMI    C2"12005   2.067   3.561   5.364  0.2839  0.2162  0.5896
  632EMI    H2"12006   2.001   3.588   5.275 -1.4770  1.8410 -0.1452
  632EMI    H2"12007   2.113   3.657   5.397  2.7329  0.8943 -0.9937
  632EMI    H2"12008   2.142   3.493   5.330 -2.4373 -2.2526  0.0905
  633EMI     N112009   4.174   2.320   6.791  0.2667  0.1327 -0.1339
  633EMI     C212010   4.099   2.318   6.677  0.7047 -0.5402  0.4016
  633EMI     N312011   4.123   2.212   6.604  0.0002 -0.3730  0.5984
  633EMI     C412012   4.211   2.134   6.679  0.0509 -0.3943  0.6878
  633EMI     C512013   4.241   2.198   6.791 -0.3349  0.1274 -0.0385
  633EMI     H212014   4.023   2.392   6.653 -0.4390 -1.6082 -1.5485
  633EMI     H412015   4.245   2.040   6.643  2.0920  0.0160 -1.2527
  633EMI     H512016   4.315   2.170   6.864  1.1172  1.0602 -2.4064
  633EMI    C1'12017   4.067   2.173   6.475  0.2901  0.8909 -0.1024
  633EMI    H1'12018   4.032   2.263   6.430 -0.2994  2.2299 -0.1329
  633EMI    H1'12019   4.131   2.114   6.414  0.8008 -1.6056  2.7900
  633EMI    H1'12020   3.988   2.106   6.503  1.2819 -1.0576  1.8146
  633EMI    C1"12021   4.176   2.422   6.897  0.3470  0.0773 -0.0654
  633EMI    H1"12022   4.112   2.505   6.871 -0.5408 -0.7107  2.5144
  633EMI    H1"12023   4.270   2.476   6.906  0.7013 -1.2415 -0.1931
  633EMI    C2"12024   4.148   2.360   7.036 -0.1864  1.0766  0.3006
  633EMI    H2"12025   4.221   2.281   7.051 -3.7653  1.6455 -0.8424
  633EMI    H2"12026   4.140   2.438   7.115 -2.5163  2.4505  3.7618
  633EMI    H2"12027   4.052   2.312   7.040  1.5778 -0.2899  1.2421
  634EMI     N112028   3.499   0.122   4.955 -0.1755 -0.3556 -0.4190
  634EMI     C212029   3.502  -0.010   4.944 -0.0816 -0.2345 -0.1440
  634EMI     N312030   3.504  -0.055   4.813  0.1786  0.3389 -0.1228
  634EMI     C412031   3.526   0.057   4.738  0.2918 -0.3462 -0.3621
  634EMI     C512032   3.518   0.161   4.825  0.5345 -0.5748  0.1008
  634EMI     H212033   3.491  -0.074   5.027  1.0085  0.5851  0.5041
  634EMI     H412034   3.556   0.052   4.638 -1.6864 -0.7335 -0.7189
  634EMI     H512035   3.537   0.261   4.786 -2.9016  1.3744 -3.0074
  634EMI    C1'12036   3.492  -0.186   4.752 -0.1311 -0.5963  0.7488
  634EMI    H1'12037   3.574  -0.198   4.684 -3.0236 -2.5192  2.1559
  634EMI    H1'12038   3.506  -0.267   4.818 -0.4163  0.5230 -1.6024
  634EMI    H1'12039   3.384  -0.182   4.715  0.2814  2.3575 -2.0500
  634EMI    C1"12040   3.487   0.221   5.068 -0.1986 -0.0937  0.2506
  634EMI    H1"12041   3.521   0.323   5.030 -1.1429 -1.1752  2.3744
  634EMI    H1"12042   3.545   0.195   5.156 -0.3138 -0.4121 -0.9351
  634EMI    C2"12043   3.341   0.218   5.117 -0.0404 -0.0487 -0.0680
  634EMI    H2"12044   3.323   0.302   5.179  1.4035 -0.9848 -1.3157
  634EMI    H2"12045   3.277   0.225   5.025  2.4209  1.1387 -2.1081
  634EMI    H2"12046   3.318   0.125   5.156 -2.5423  2.0699 -1.1586
  635EMI     N112047   2.883   3.572   6.132  0.8913  0.5036 -0.0161
  635EMI     C212048   3.000   3.538   6.178 -0.5065 -0.3531  0.3353
  635EMI     N312049   3.085   3.644   6.180  0.2654  0.2932 -0.3903
  635EMI     C412050   3.016   3.747   6.121  0.3823  0.6193 -0.1670
  635EMI     C512051   2.888   3.702   6.096 -0.3010 -0.4205  0.0794
  635EMI     H212052   3.022   3.435   6.205  0.4372 -1.4614  0.3685
  635EMI     H412053   3.050   3.848   6.108 -1.0271 -0.4486  3.1375
  635EMI     H512054   2.806   3.769   6.061 -1.4721  0.7862  2.3432
  635EMI    C1'12055   3.227   3.648   6.218  0.0731 -0.0296  0.2749
  635EMI    H1'12056   3.257   3.753   6.226  2.2467  1.7964  2.3879
  635EMI    H1'12057   3.247   3.606   6.308 -0.0234  1.7070 -0.2951
  635EMI    H1'12058   3.281   3.595   6.137  1.8597 -2.5492  0.8812
  635EMI    C1"12059   2.769   3.481   6.106 -0.1643  0.3239  0.5517
  635EMI    H1"12060   2.807   3.379   6.093  0.1362 -0.2707 -2.4742
  635EMI    H1"12061   2.722   3.509   6.017  1.1661 -2.2886  2.7900
  635EMI    C2"12062   2.660   3.492   6.214 -0.6518  0.3106  0.2497
  635EMI    H2"12063   2.690   3.461   6.318  0.2622  0.8588  3.8712
  635EMI    H2"12064   2.627   3.591   6.217  5.7071  0.7025  1.3271
  635EMI    H2"12065   2.576   3.439   6.191 -0.0852  0.6841  3.4692
  636EMI     N112066   2.524   1.276   1.955  0.5044  0.6599 -0.4721
  636EMI     C212067   2.585   1.397   1.965 -0.0355 -0.2052  0.3256
  636EMI     N312068   2.719   1.383   1.930  0.7524 -0.2481 -0.5802
  636EMI     C412069   2.732   1.251   1.893 -0.2953 -0.0628 -0.0755
  636EMI     C512070   2.624   1.186   1.921  0.3156 -0.6332  0.0701
  636EMI     H212071   2.547   1.494   2.005  2.3860  2.0620  0.6324
  636EMI     H412072   2.824   1.215   1.853 -0.9009 -0.6380 -0.8234
  636EMI     H512073   2.605   1.077   1.916 -1.2754  0.1798  0.3287
  636EMI    C1'12074   2.817   1.492   1.923 -0.1719  0.3891 -1.0391
  636EMI    H1'12075   2.816   1.530   1.820  0.3079  2.2819  0.5222
  636EMI    H1'12076   2.801   1.575   1.993 -0.1491  0.2494 -2.5885
  636EMI    H1'12077   2.913   1.452   1.948 -2.5589  2.5655 -0.5705
  636EMI    C1"12078   2.392   1.227   1.998  0.3195  0.4704 -0.6000
  636EMI    H1"12079   2.403   1.189   2.102 -1.4387  1.0555  1.4400
  636EMI    H1"12080   2.354   1.151   1.930 -0.2183 -1.5859  0.1752
  636EMI    C2"12081   2.296   1.346   2.004 -0.8964 -0.6696 -0.3271
  636EMI    H2"12082   2.283   1.398   1.908  0.0928  2.1108 -0.3356
  636EMI    H2"12083   2.195   1.309   2.026  0.7403 -0.1744  1.5875
  636EMI    H2"12084   2.316   1.418   2.081 -1.0383 -0.0366 -0.1155
  637EMI     N112085   5.442   4.379   6.415  0.4465  0.1434 -0.2929
  637EMI     C212086   5.342   4.324   6.341  0.0361  1.1685 -0.2604
  637EMI     N312087   5.341   4.192   6.361  0.0678 -0.1819  0.4081
  637EMI     C412088   5.449   4.162   6.444  0.3081 -0.3302  0.1772
  637EMI     C512089   5.510   4.276   6.480 -0.4504 -0.9622 -0.4743
  637EMI     H212090   5.271   4.379   6.278 -0.4365  0.4604  0.8843
  637EMI     H412091   5.487   4.066   6.472  1.1735 -1.4491 -0.5820
  637EMI     H512092   5.598   4.288   6.549 -1.9271  0.3479  2.0837
  637EMI    C1'12093   5.271   4.081   6.297 -0.0980  0.0217 -0.0509
  637EMI    H1'12094   5.166   4.088   6.312  3.2313 -1.9726  1.3235
  637EMI    H1'12095   5.288   4.087   6.188 -0.0803  2.8335  1.2131
  637EMI    H1'12096   5.300   3.983   6.334  0.3196 -2.3967  2.2244
  637EMI    C1"12097   5.494   4.515   6.406  0.0408 -0.7314  0.2571
  637EMI    H1"12098   5.570   4.531   6.325  3.0678 -0.9616 -0.4824
  637EMI    H1"12099   5.547   4.535   6.499 -0.2060 -0.7796 -1.4852
  637EMI    C2"12100   5.387   4.617   6.399  0.5396  0.1907 -0.7829
  637EMI    H2"12101   5.321   4.624   6.483 -0.4065  1.7737 -0.6130
  637EMI    H2"12102   5.433   4.716   6.393 -0.7908 -0.7937 -0.8065
  637EMI    H2"12103   5.328   4.597   6.304  2.0510 -0.5907 -0.7556
  638EMI     N112104   4.943   3.117   4.288 -0.1894 -0.1669  0.1684
  638EMI     C212105   5.066   3.133   4.341  0.3967  0.6520  0.2869
  638EMI     N312106   5.089   3.044   4.441  0.4272 -0.0499  0.2676
  638EMI     C412107   4.974   2.972   4.459 -0.0520 -0.0448  0.6184
  638EMI     C512108   4.887   3.018   4.370 -0.8343 -0.1023 -0.6666
  638EMI     H212109   5.149   3.196   4.299 -2.3900 -0.3727 -0.0381
  638EMI     H412110   4.955   2.889   4.521 -0.8034 -0.7624 -0.0147
  638EMI     H512111   4.786   2.980   4.359  0.5075 -0.6095 -2.0441
  638EMI    C1'12112   5.215   3.017   4.511  0.7099  0.2260  0.3566
  638EMI    H1'12113   5.205   3.038   4.617  2.1333  0.4888  1.3280
  638EMI    H1'12114   5.239   2.911   4.499  1.3157  1.5379  1.3965
  638EMI    H1'12115   5.295   3.076   4.467  0.7517  0.0176  0.9762
  638EMI    C1"12116   4.866   3.183   4.183  0.1067 -0.1543 -0.0571
  638EMI    H1"12117   4.766   3.180   4.222 -1.1766 -0.1414 -2.2786
  638EMI    H1"12118   4.861   3.126   4.090  1.9276  3.8868  1.6927
  638EMI    C2"12119   4.910   3.329   4.151  0.0228 -0.2615  0.4515
  638EMI    H2"12120   4.825   3.386   4.118  2.2523  0.9471  0.2933
  638EMI    H2"12121   4.944   3.389   4.238 -3.7018  4.1892 -0.4049
  638EMI    H2"12122   4.999   3.332   4.093  2.8055  1.3145  1.7143
  639EMI     N112123   0.142   6.291   4.431 -1.3296 -0.1332  0.4534
  639EMI     C212124   0.203   6.194   4.508  0.0492  0.3542  0.3805
  639EMI     N312125   0.249   6.094   4.432  0.2601  0.3711  0.3450
  639EMI     C412126   0.220   6.130   4.299  0.6150 -0.1860 -0.3834
  639EMI     C512127   0.158   6.247   4.305  0.4576  0.9294 -0.8761
  639EMI     H212128   0.197   6.200   4.610  0.2143 -0.5198  0.4579
  639EMI     H412129   0.247   6.079   4.206 -1.8892 -0.6044  0.9793
  639EMI     H512130   0.129   6.300   4.218  1.6189 -0.4959 -0.3430
  639EMI    C1'12131   0.306   5.968   4.473 -0.1181 -0.3065 -0.0093
  639EMI    H1'12132   0.403   5.982   4.528  0.9197  1.7239 -1.4650
  639EMI    H1'12133   0.233   5.915   4.530  1.5829  1.2853 -2.7647
  639EMI    H1'12134   0.324   5.908   4.380  1.3402  0.0710  0.0268
  639EMI    C1"12135   0.082   6.420   4.458 -0.0034 -0.7309 -0.0078
  639EMI    H1"12136   0.096   6.476   4.362 -1.8102  0.1424 -0.6599
  639EMI    H1"12137   0.131   6.469   4.542 -0.6483 -0.6779  0.0935
  639EMI    C2"12138  -0.065   6.414   4.493  0.6870  0.0389 -0.2061
  639EMI    H2"12139  -0.106   6.371   4.406  0.9629  1.1512  0.8537
  639EMI    H2"12140  -0.074   6.351   4.579 -0.4153  1.2170  0.4790
  639EMI    H2"12141  -0.106   6.512   4.505  0.0807 -0.3506  0.3713
  640EMI     N112142   3.198   4.393   3.064  0.2857  0.5629 -0.1774
  640EMI     C212143   3.320   4.347   3.077 -0.2388  0.5927 -0.4574
  640EMI     N312144   3.411   4.409   3.001  1.0773  0.0158  0.3006
  640EMI     C412145   3.336   4.493   2.921  0.4834 -0.3748  0.0414
  640EMI     C512146   3.207   4.485   2.962  0.0906 -0.1114  0.3313
  640EMI     H212147   3.347   4.270   3.144  0.8630 -0.4133 -1.1643
  640EMI     H412148   3.385   4.558   2.847 -0.9669  0.2863 -0.3623
  640EMI     H512149   3.123   4.537   2.924 -1.5303 -2.5964  0.8272
  640EMI    C1'12150   3.549   4.389   2.981 -0.6408 -0.4439 -0.4833
  640EMI    H1'12151   3.609   4.481   2.998  2.0833 -1.6110  0.8608
  640EMI    H1'12152   3.591   4.308   3.034  1.7487  1.3011  0.4746
  640EMI    H1'12153   3.557   4.372   2.877  1.6978  0.9406  2.2661
  640EMI    C1"12154   3.077   4.365   3.140 -0.2089 -0.2317  0.2628
  640EMI    H1"12155   2.988   4.398   3.083 -0.7601 -1.1316 -0.9291
  640EMI    H1"12156   3.069   4.429   3.227  0.8635 -0.3697 -0.0882
  640EMI    C2"12157   3.054   4.231   3.198 -0.1813  0.0519  0.0787
  640EMI    H2"12158   3.126   4.218   3.273 -0.7906  0.9252 -2.6457
  640EMI    H2"12159   2.959   4.227   3.247  0.9434 -1.4694  1.9006
  640EMI    H2"12160   3.055   4.168   3.113  1.2760 -1.6360  0.9912
  641EMI     N112161   1.951   4.963   3.795  0.3406  0.6690 -0.4694
  641EMI     C212162   1.963   4.964   3.658  0.2410  0.1968  0.2426
  641EMI     N312163   1.867   5.045   3.602  0.0209  0.0303  0.1916
  641EMI     C412164   1.804   5.107   3.711  0.7559 -0.3914  0.0288
  641EMI     C512165   1.849   5.053   3.825  0.3311  0.0053 -0.9146
  641EMI     H212166   2.026   4.895   3.605  4.9813 -2.3021 -0.6902
  641EMI     H412167   1.737   5.187   3.698 -1.0024  1.2140 -0.4209
  641EMI     H512168   1.819   5.096   3.918 -0.4440 -0.2256  1.7445
  641EMI    C1'12169   1.845   5.091   3.462  0.1734  0.1726  0.1716
  641EMI    H1'12170   1.801   5.008   3.410  0.0622  1.6343  3.2364
  641EMI    H1'12171   1.781   5.178   3.468 -1.9836  0.5194 -0.8614
  641EMI    H1'12172   1.946   5.124   3.438  4.2420 -0.7026  1.2240
  641EMI    C1"12173   2.028   4.887   3.904 -0.0535  0.6341  0.1226
  641EMI    H1"12174   1.963   4.853   3.985 -0.4967 -2.6797 -0.3211
  641EMI    H1"12175   2.099   4.953   3.939 -0.7202  0.5181 -1.3753
  641EMI    C2"12176   2.107   4.763   3.856 -0.0767  0.7860 -0.4002
  641EMI    H2"12177   2.173   4.788   3.769  2.0575 -1.0928 -2.0020
  641EMI    H2"12178   2.173   4.731   3.937 -1.5011  2.0785 -0.8063
  641EMI    H2"12179   2.042   4.684   3.830  1.2221  0.7315 -1.8423
  642EMI     N112180   1.129   0.325   0.430  0.1161 -0.5699 -0.6000
  642EMI     C212181   1.095   0.453   0.466  0.2138 -0.3443  0.5528
  642EMI     N312182   0.993   0.450   0.555 -0.0861 -0.2641 -0.7257
  642EMI     C412183   0.964   0.317   0.576  0.5388 -0.1073  0.0298
  642EMI     C512184   1.053   0.240   0.512  0.0700  0.5727  0.3359
  642EMI     H212185   1.137   0.546   0.424  1.4230  1.8826  1.3271
  642EMI     H412186   0.882   0.283   0.643 -0.3286 -1.1894  0.9031
  642EMI     H512187   1.060   0.129   0.500 -0.9772 -2.0374 -1.5762
  642EMI    C1'12188   0.919   0.549   0.628 -0.2826  0.0843  0.9965
  642EMI    H1'12189   0.988   0.639   0.660 -0.5527 -0.1572  0.2629
  642EMI    H1'12190   0.841   0.587   0.563  0.9457 -2.6595  0.0186
  642EMI    H1'12191   0.873   0.509   0.716 -0.0844  2.5577  1.4059
  642EMI    C1"12192   1.232   0.279   0.333 -0.5674  0.3925 -0.6274
  642EMI    H1"12193   1.234   0.336   0.244  0.8573 -0.1549  1.4280
  642EMI    H1"12194   1.223   0.167   0.313 -2.3576 -0.5111  0.8280
  642EMI    C2"12195   1.373   0.283   0.413  0.8112 -0.3841 -0.5524
  642EMI    H2"12196   1.437   0.202   0.376  2.7214 -0.0544 -0.4644
  642EMI    H2"12197   1.411   0.383   0.406  1.8838  1.5182 -0.5907
  642EMI    H2"12198   1.352   0.269   0.520  2.0297 -1.2454  0.8385
  643EMI     N112199   2.414   3.125   3.997 -0.0938  0.0517  0.0496
  643EMI     C212200   2.509   3.140   3.903  0.3712 -0.6736 -0.2634
  643EMI     N312201   2.531   3.018   3.846 -0.4772  0.3281 -0.9177
  643EMI     C412202   2.447   2.923   3.900  0.0095 -0.3806 -0.1454
  643EMI     C512203   2.381   2.991   3.997 -0.0259 -0.2640  0.0395
  643EMI     H212204   2.562   3.227   3.877  0.6138  2.5864 -0.0778
  643EMI     H412205   2.441   2.817   3.883  0.4466 -1.1127  1.1634
  643EMI     H512206   2.311   2.956   4.074  0.7494  0.6569  0.1841
  643EMI    C1'12207   2.625   2.982   3.736  0.2917  0.0212  0.5226
  643EMI    H1'12208   2.728   2.984   3.770  3.2671  0.1475  2.6748
  643EMI    H1'12209   2.604   2.883   3.700 -1.8721 -0.5039  2.5300
  643EMI    H1'12210   2.606   3.059   3.664  0.2486  1.4149 -0.8931
  643EMI    C1"12211   2.357   3.213   4.101 -0.3514 -0.1478 -0.1816
  643EMI    H1"12212   2.267   3.167   4.151  0.4112  1.4580  2.5245
  643EMI    H1"12213   2.325   3.308   4.054 -0.4181 -0.4077  0.8082
  643EMI    C2"12214   2.449   3.233   4.216  0.7267  0.4900 -0.1455
  643EMI    H2"12215   2.408   3.305   4.280  1.4592 -1.5446  3.4699
  643EMI    H2"12216   2.453   3.137   4.274  0.8981 -0.2966  1.1261
  643EMI    H2"12217   2.551   3.257   4.183 -1.5924 -1.5096 -0.3815
  644EMI     N112218   6.051   3.084   5.985  0.3698 -0.1287  0.9476
  644EMI     C212219   6.128   2.976   5.991  0.8064  0.1427  0.0456
  644EMI     N312220   6.140   2.939   6.121 -0.3824  0.9378  0.3627
  644EMI     C412221   6.073   3.027   6.195 -0.3235 -0.4637  0.1358
  644EMI     C512222   6.017   3.113   6.115  0.3326 -0.1810  0.2269
  644EMI     H212223   6.176   2.930   5.907 -1.4110 -0.2219  1.1624
  644EMI     H412224   6.049   3.033   6.301  0.5914  1.7053  0.3167
  644EMI     H512225   5.958   3.187   6.157 -0.5133  1.0027  2.5538
  644EMI    C1'12226   6.217   2.831   6.178  0.2947  0.9938 -0.6282
  644EMI    H1'12227   6.182   2.734   6.155  0.4215  2.4964 -1.0691
  644EMI    H1'12228   6.323   2.844   6.150  1.9077 -3.0013 -1.2924
  644EMI    H1'12229   6.213   2.838   6.286  1.9454  1.3888 -0.5978
  644EMI    C1"12230   6.008   3.165   5.867 -0.7188  0.7733 -0.1725
  644EMI    H1"12231   6.093   3.204   5.809 -0.5368 -1.0665 -0.3641
  644EMI    H1"12232   5.938   3.243   5.905 -1.5617 -2.1908 -0.5640
  644EMI    C2"12233   5.931   3.078   5.777  0.2189  0.4426  0.3353
  644EMI    H2"12234   5.839   3.040   5.817 -0.7982  2.0573 -0.6762
  644EMI    H2"12235   5.912   3.136   5.689  1.6629 -0.8900 -0.3692
  644EMI    H2"12236   5.985   2.986   5.754  1.5723  0.2217 -1.3823
  645EMI     N112237   2.798   1.323   2.377  0.5444 -0.5283 -1.1519
  645EMI     C212238   2.846   1.211   2.325 -0.1811  0.4135  1.3952
  645EMI     N312239   2.746   1.141   2.261 -0.3202  0.3420  0.0821
  645EMI     C412240   2.631   1.217   2.281  0.4437 -0.2953 -0.0790
  645EMI     C512241   2.665   1.328   2.346  0.6979 -0.5060  0.3587
  645EMI     H212242   2.947   1.174   2.340  2.0161  0.0591  1.0156
  645EMI     H412243   2.525   1.200   2.253 -2.0148  0.0405  2.3712
  645EMI     H512244   2.593   1.401   2.375  0.6168 -2.8668 -0.4713
  645EMI    C1'12245   2.739   1.008   2.198 -0.1741 -0.6065  0.1569
  645EMI    H1'12246   2.749   1.013   2.095 -0.9182  1.2949  2.4996
  645EMI    H1'12247   2.820   0.944   2.226  1.9194  1.3588  0.3466
  645EMI    H1'12248   2.651   0.966   2.231 -0.5734 -0.5822 -2.6959
  645EMI    C1"12249   2.863   1.432   2.453 -0.7840  0.6061  0.6677
  645EMI    H1"12250   2.939   1.381   2.512  1.3463 -0.1314 -4.2491
  645EMI    H1"12251   2.789   1.484   2.512 -2.0985 -1.6468  2.3937
  645EMI    C2"12252   2.937   1.527   2.361 -0.2056  0.0583  0.0315
  645EMI    H2"12253   2.969   1.613   2.419  0.2791 -1.7569 -2.1851
  645EMI    H2"12254   3.020   1.479   2.310  0.5644  0.5050  2.5754
  645EMI    H2"12255   2.859   1.557   2.288 -1.1536  0.6248  2.5849
  646EMI     N112256   0.930   4.346   1.787  0.7350 -0.3050  0.4045
  646EMI     C212257   0.828   4.323   1.699 -0.9031 -0.6995  0.6686
  646EMI     N312258   0.747   4.430   1.695  0.7193  0.0370  0.0360
  646EMI     C412259   0.799   4.528   1.775 -0.4288  0.3257 -0.1527
  646EMI     C512260   0.917   4.482   1.823 -0.5726  0.6698 -0.5522
  646EMI     H212261   0.826   4.233   1.636 -0.0342 -1.0194  0.3716
  646EMI     H412262   0.759   4.629   1.792  0.5450  1.4513 -0.7617
  646EMI     H512263   0.987   4.546   1.882  1.6326  2.1542  0.1894
  646EMI    C1'12264   0.636   4.465   1.606 -0.1025 -0.4537 -0.1020
  646EMI    H1'12265   0.580   4.543   1.651  0.2325  0.4341  1.1185
  646EMI    H1'12266   0.685   4.495   1.519 -0.9243  1.2888 -1.4153
  646EMI    H1'12267   0.573   4.372   1.596  1.0051  1.2026 -1.3159
  646EMI    C1"12268   1.039   4.260   1.833 -0.2379 -0.2095  0.4517
  646EMI    H1"12269   1.005   4.156   1.844  0.3894  0.6243  1.6295
  646EMI    H1"12270   1.072   4.293   1.929  0.3103  1.1320 -0.7890
  646EMI    C2"12271   1.158   4.279   1.740 -0.4673  0.2620  0.1746
  646EMI    H2"12272   1.202   4.379   1.751 -1.3825 -0.1283 -1.2367
  646EMI    H2"12273   1.237   4.213   1.786 -2.7083  1.9867  0.3281
  646EMI    H2"12274   1.126   4.266   1.632 -0.1716  0.3534  3.0620
  647EMI     N112275   5.237   2.458   1.351 -0.1964 -0.2039  0.3724
  647EMI     C212276   5.136   2.387   1.405 -0.3921  0.4224 -0.7187
  647EMI     N312277   5.034   2.467   1.443  0.5813  0.2705  0.4583
  647EMI     C412278   5.066   2.588   1.397 -0.3776  0.2203 -0.4851
  647EMI     C512279   5.188   2.587   1.343  0.0050 -0.7056 -0.1313
  647EMI     H212280   5.139   2.283   1.424  2.2172 -0.4396 -1.0626
  647EMI     H412281   5.004   2.677   1.418  0.4162  0.0772  0.6120
  647EMI     H512282   5.247   2.681   1.308 -0.0124  2.2274 -2.6537
  647EMI    C1'12283   4.912   2.433   1.518  0.4989  0.6119  0.3733
  647EMI    H1'12284   4.830   2.412   1.446  0.0518  0.3817 -0.6664
  647EMI    H1'12285   4.941   2.351   1.589  0.4155  1.5231 -2.0548
  647EMI    H1'12286   4.892   2.521   1.582  1.6850  0.9979 -0.7620
  647EMI    C1"12287   5.369   2.423   1.301  0.4676 -0.0940  0.0289
  647EMI    H1"12288   5.437   2.510   1.297 -0.5046 -2.0822  1.3859
  647EMI    H1"12289   5.352   2.401   1.196 -0.0314  0.4763 -0.2581
  647EMI    C2"12290   5.424   2.301   1.372  1.1149 -0.4135  0.5667
  647EMI    H2"12291   5.361   2.218   1.354 -0.2732  1.3436 -3.4640
  647EMI    H2"12292   5.521   2.278   1.321  2.8648  0.2344 -0.4119
  647EMI    H2"12293   5.449   2.321   1.479  2.4369 -1.6932 -0.5373
  648EMI     N112294   5.328   5.796   6.709  1.0469 -0.2652  0.4365
  648EMI     C212295   5.313   5.680   6.781 -0.1038 -0.1743 -0.0035
  648EMI     N312296   5.348   5.708   6.905  0.9238 -0.5133 -0.5724
  648EMI     C412297   5.388   5.834   6.916  0.0836 -0.4747  0.4091
  648EMI     C512298   5.372   5.893   6.797  0.2199  0.3983  1.0201
  648EMI     H212299   5.292   5.582   6.731 -2.2842  1.0695 -0.1837
  648EMI     H412300   5.431   5.876   7.006  0.3364 -0.5333 -2.1966
  648EMI     H512301   5.399   5.994   6.777 -1.3091 -1.0740 -1.4927
  648EMI    C1'12302   5.371   5.615   7.014 -0.4069 -0.5708 -0.0066
  648EMI    H1'12303   5.347   5.661   7.111 -2.3924  2.2876  0.8213
  648EMI    H1'12304   5.307   5.521   7.002 -0.0457 -1.4892 -0.7385
  648EMI    H1'12305   5.472   5.575   7.016 -2.1418  0.4413 -2.3809
  648EMI    C1"12306   5.313   5.819   6.563 -0.2038  0.1810 -0.6902
  648EMI    H1"12307   5.377   5.903   6.547  1.3628  0.9714  0.8601
  648EMI    H1"12308   5.206   5.842   6.544  0.1452  2.1075 -0.1841
  648EMI    C2"12309   5.354   5.705   6.477 -0.3083  0.2394  0.0042
  648EMI    H2"12310   5.322   5.724   6.374  0.9608 -0.9538  0.0275
  648EMI    H2"12311   5.463   5.685   6.485  0.5463 -0.1012  1.2570
  648EMI    H2"12312   5.305   5.610   6.507 -0.7918 -2.8027  0.3003
  649EMI     N112313   3.640   3.772   4.608  0.0744  0.5358 -0.1694
  649EMI     C212314   3.722   3.878   4.592 -0.3561 -0.1727  0.2878
  649EMI     N312315   3.827   3.839   4.518 -0.3674  0.2008 -0.1270
  649EMI     C412316   3.812   3.706   4.485  0.3201 -0.2804  0.0144
  649EMI     C512317   3.691   3.665   4.534  0.1645 -0.1801 -0.6172
  649EMI     H212318   3.702   3.976   4.631  3.5024  0.4584 -1.1006
  649EMI     H412319   3.874   3.645   4.420 -1.1051  0.0215 -2.7164
  649EMI     H512320   3.647   3.570   4.510 -3.1888  0.0656 -0.5718
  649EMI    C1'12321   3.947   3.920   4.484  0.6502 -0.2191  0.9624
  649EMI    H1'12322   4.036   3.855   4.493 -0.0828  1.3003  0.3510
  649EMI    H1'12323   3.932   3.945   4.379  0.0702 -1.7913  1.1821
  649EMI    H1'12324   3.946   4.001   4.547  1.0975 -0.6337 -0.8530
  649EMI    C1"12325   3.507   3.764   4.680 -0.2998 -0.3660 -0.6920
  649EMI    H1"12326   3.471   3.662   4.680 -2.0697  0.1091  0.6977
  649EMI    H1"12327   3.436   3.826   4.626  0.4566  1.3257 -1.8979
  649EMI    C2"12328   3.530   3.812   4.819  0.3027  0.2248 -0.7246
  649EMI    H2"12329   3.603   3.747   4.867 -0.7763 -2.7538 -0.4749
  649EMI    H2"12330   3.575   3.914   4.827  0.4249 -0.7018  0.6321
  649EMI    H2"12331   3.443   3.835   4.878 -0.8723  2.3242 -0.9800
  650EMI     N112332   3.698   2.172   3.445 -0.1988 -0.6018 -0.1944
  650EMI     C212333   3.598   2.254   3.406  0.2373  0.5701 -0.3741
  650EMI     N312334   3.514   2.176   3.330 -0.2332 -0.0239 -0.4340
  650EMI     C412335   3.551   2.045   3.332 -0.0476 -0.3764  0.1611
  650EMI     C512336   3.662   2.042   3.408  0.1379 -0.0204 -0.4081
  650EMI     H212337   3.579   2.359   3.431  0.3073 -2.1379 -1.6932
  650EMI     H412338   3.493   1.962   3.290  1.3907  0.2985  0.2139
  650EMI     H512339   3.711   1.951   3.437 -1.4077  0.5564  0.8238
  650EMI    C1'12340   3.379   2.205   3.271  0.5427 -0.1106 -0.2010
  650EMI    H1'12341   3.302   2.184   3.341 -0.6377 -0.4708  1.3273
  650EMI    H1'12342   3.369   2.303   3.241 -0.3355 -1.2832 -2.1182
  650EMI    H1'12343   3.355   2.148   3.181  0.3612  3.2932  0.5388
  650EMI    C1"12344   3.823   2.198   3.515 -0.3449 -0.2911 -0.0272
  650EMI    H1"12345   3.866   2.294   3.488  1.3292  1.4119 -3.1656
  650EMI    H1"12346   3.901   2.126   3.487  2.2854  0.0514 -2.2427
  650EMI    C2"12347   3.803   2.183   3.664 -0.7378  0.8492 -1.0031
  650EMI    H2"12348   3.898   2.193   3.717  1.7161  1.0267 -1.0079
  650EMI    H2"12349   3.734   2.251   3.712 -1.6476  1.8933  1.5043
  650EMI    H2"12350   3.758   2.081   3.672 -3.2051 -1.7436 -0.6061
  651EMI     N112351   6.291   2.173   4.244  0.3636 -0.3179  0.4311
  651EMI     C212352   6.228   2.272   4.310  0.5373  0.3242 -0.2267
  651EMI     N312353   6.093   2.256   4.292  0.1848  0.1304 -0.3655
  651EMI     C412354   6.071   2.144   4.216  0.0127  0.1322  0.6445
  651EMI     C512355   6.195   2.091   4.196  0.3280  0.6323  0.3130
  651EMI     H212356   6.283   2.357   4.353 -1.1791  0.0046  0.0217
  651EMI     H412357   5.968   2.119   4.193 -0.2215 -1.3363 -1.2772
  651EMI     H512358   6.217   1.998   4.147  1.1107  1.9064 -1.1887
  651EMI    C1'12359   5.975   2.338   4.325 -0.0184  0.4874 -0.8547
  651EMI    H1'12360   5.908   2.286   4.397 -1.3795  1.8958  2.4267
  651EMI    H1'12361   6.018   2.416   4.378  0.9531 -0.1285 -1.4754
  651EMI    H1'12362   5.912   2.365   4.241 -0.1284 -2.1613 -1.1127
  651EMI    C1"12363   6.434   2.156   4.224  0.2670  0.3631 -0.4329
  651EMI    H1"12364   6.460   2.050   4.208  1.5237  1.1125 -2.7988
  651EMI    H1"12365   6.494   2.196   4.313 -1.6165 -1.5175  2.8057
  651EMI    C2"12366   6.480   2.225   4.099 -0.0513 -0.8372  0.4254
  651EMI    H2"12367   6.471   2.333   4.102  0.0488 -0.7547  1.0036
  651EMI    H2"12368   6.584   2.199   4.085 -0.6574  0.4079 -1.3649
  651EMI    H2"12369   6.428   2.184   4.011 -0.3582 -3.6649  0.8197
  652EMI     N112370   4.022   5.702   3.170 -0.3470 -0.5476 -0.5572
  652EMI     C212371   4.035   5.799   3.074  0.3467 -0.7400  0.0945
  652EMI     N312372   3.975   5.912   3.112  0.5324  0.4443  0.4411
  652EMI     C412373   3.925   5.888   3.238  0.1491 -0.1541  0.0269
  652EMI     C512374   3.953   5.760   3.278  0.2187  0.1035  0.7894
  652EMI     H212375   4.089   5.783   2.978 -2.3064  0.1767  2.6024
  652EMI     H412376   3.868   5.958   3.289  0.7775 -0.8251  2.2033
  652EMI     H512377   3.918   5.708   3.366 -1.2657 -1.3664  1.5231
  652EMI    C1'12378   3.954   6.041   3.054  0.8961 -1.1701  0.4471
  652EMI    H1'12379   3.858   6.047   2.993  3.2254 -1.4566 -0.0929
  652EMI    H1'12380   3.950   6.122   3.129  1.4253  1.0419 -0.2347
  652EMI    H1'12381   4.048   6.066   2.991  2.2186 -1.6176  1.1221
  652EMI    C1"12382   4.067   5.559   3.176 -0.6774 -0.1827 -0.1410
  652EMI    H1"12383   4.031   5.523   3.265  2.5918  0.6252  0.1005
  652EMI    H1"12384   4.174   5.568   3.177  2.6906  0.8575  2.4512
  652EMI    C2"12385   4.042   5.483   3.052  0.5696 -0.4485  0.3123
  652EMI    H2"12386   3.936   5.459   3.051 -0.7035  3.2304  0.0239
  652EMI    H2"12387   4.055   5.559   2.973  1.2159  0.7526 -0.0736
  652EMI    H2"12388   4.095   5.384   3.052 -1.3985  0.1739 -0.9356
  653EMI     N112389   1.310   0.335   2.686  0.0353 -0.7223  0.3094
  653EMI     C212390   1.314   0.402   2.568 -0.4673  0.1313 -0.4100
  653EMI     N312391   1.436   0.382   2.508  0.5006 -0.3894 -0.0688
  653EMI     C412392   1.511   0.303   2.599 -0.0414 -0.4871 -0.1127
  653EMI     C512393   1.431   0.269   2.704 -0.6523  0.0956 -0.4753
  653EMI     H212394   1.243   0.464   2.519 -0.1037  3.9721  0.6317
  653EMI     H412395   1.615   0.285   2.583 -0.1597  0.2612  2.1184
  653EMI     H512396   1.458   0.218   2.802 -2.7763 -2.1650 -0.3470
  653EMI    C1'12397   1.489   0.421   2.378 -0.3144  0.2107  0.2870
  653EMI    H1'12398   1.555   0.507   2.397 -1.9924  2.0218 -0.8835
  653EMI    H1'12399   1.540   0.331   2.339  1.6772 -0.6394 -0.5028
  653EMI    H1'12400   1.407   0.455   2.311 -1.0677 -2.8682  0.4243
  653EMI    C1"12401   1.212   0.346   2.792  0.1681  0.4089  0.3466
  653EMI    H1"12402   1.148   0.434   2.792  1.6517  2.6702 -0.8633
  653EMI    H1"12403   1.265   0.342   2.885 -0.0712  0.8722 -2.5526
  653EMI    C2"12404   1.114   0.232   2.793  0.9822 -0.0484 -0.4267
  653EMI    H2"12405   1.056   0.224   2.700 -0.0148  1.2534  1.3640
  653EMI    H2"12406   1.161   0.136   2.808 -2.5380 -1.0267 -1.4267
  653EMI    H2"12407   1.054   0.243   2.885  0.5083  2.0311  3.2105
  654EMI     N112408   0.012   5.886   5.679 -0.3849  0.0458  0.1196
  654EMI     C212409   0.101   5.989   5.684 -0.8125  0.0560 -0.3193
  654EMI     N312410   0.030   6.098   5.724  0.2486 -0.4322  0.2611
  654EMI     C412411  -0.099   6.061   5.741  0.4024  0.0576  0.0625
  654EMI     C512412  -0.108   5.926   5.728  1.0058  0.9017 -0.0601
  654EMI     H212413   0.202   5.986   5.632 -1.1411  2.0135  1.0298
  654EMI     H412414  -0.178   6.130   5.778 -1.3256  0.2795 -0.2082
  654EMI     H512415  -0.192   5.861   5.751 -3.9588 -0.3869  2.0834
  654EMI    C1'12416   0.071   6.237   5.746  0.0513  0.2533  0.6900
  654EMI    H1'12417   0.069   6.292   5.653 -0.9674 -0.4406 -1.5647
  654EMI    H1'12418  -0.006   6.276   5.809  1.1217 -3.1065  0.4341
  654EMI    H1'12419   0.168   6.228   5.793 -1.9475 -1.4842 -0.2407
  654EMI    C1"12420   0.034   5.754   5.632  0.0627  0.2479 -0.7564
  654EMI    H1"12421  -0.038   5.685   5.673  1.8880 -1.2222 -1.5336
  654EMI    H1"12422   0.136   5.719   5.643 -0.4133 -3.4328  1.1890
  654EMI    C2"12423   0.004   5.762   5.477 -0.4914  0.0584  0.2690
  654EMI    H2"12424   0.027   5.863   5.447 -0.6374 -0.0525  1.9859
  654EMI    H2"12425   0.053   5.686   5.408 -1.4631  1.1075 -2.6504
  654EMI    H2"12426  -0.104   5.744   5.465 -0.2194  0.0728 -1.6722
  655EMI     N112427   5.025   3.812   5.182  0.5489  0.0705  0.5640
  655EMI     C212428   5.106   3.748   5.272  0.2639  0.6048 -0.0120
  655EMI     N312429   5.034   3.674   5.353 -0.7231  0.0078 -0.4602
  655EMI     C412430   4.902   3.683   5.308 -0.9731 -0.1403 -0.2008
  655EMI     C512431   4.898   3.773   5.207 -0.1406 -0.8607 -0.4687
  655EMI     H212432   5.210   3.768   5.286 -2.0102  1.4851  0.7954
  655EMI     H412433   4.810   3.641   5.351 -1.1404 -2.1055  0.4292
  655EMI     H512434   4.811   3.822   5.165 -2.1883 -0.6343 -1.4975
  655EMI    C1'12435   5.067   3.591   5.476 -0.1247  0.3186  0.5472
  655EMI    H1'12436   5.010   3.631   5.567  1.1344  2.2247 -0.2696
  655EMI    H1'12437   5.047   3.484   5.470  0.5665 -0.9383  1.4312
  655EMI    H1'12438   5.171   3.617   5.501 -1.4601 -0.6420  0.5905
  655EMI    C1"12439   5.061   3.908   5.077  0.6810  0.1769 -0.5275
  655EMI    H1"12440   5.065   4.003   5.127 -1.4470 -1.8746  1.8823
  655EMI    H1"12441   4.977   3.914   5.003 -0.0791  2.5943 -0.5499
  655EMI    C2"12442   5.195   3.890   5.008  0.2753 -0.4131  0.4817
  655EMI    H2"12443   5.189   3.948   4.913 -2.3737  0.0456  0.4120
  655EMI    H2"12444   5.274   3.936   5.068  0.6894 -1.4547 -2.3252
  655EMI    H2"12445   5.218   3.786   4.984  2.0443  1.6091 -3.4136
  656EMI     N112446   2.350   6.178   4.376 -0.3241 -0.1329 -0.0068
  656EMI     C212447   2.322   6.220   4.500 -0.4549 -0.9916  0.4333
  656EMI     N312448   2.431   6.269   4.560  0.0478  0.3583  0.5723
  656EMI     C412449   2.532   6.249   4.470 -0.6313  0.3124 -0.0233
  656EMI     C512450   2.487   6.189   4.358 -0.0382 -0.2250 -0.2289
  656EMI     H212451   2.218   6.220   4.532 -2.7961  1.5935  4.2434
  656EMI     H412452   2.635   6.278   4.491 -1.7391 -0.3215 -1.5534
  656EMI     H512453   2.554   6.161   4.275  0.5478 -4.0260  0.4222
  656EMI    C1'12454   2.442   6.322   4.693  0.8205 -0.3077 -0.0422
  656EMI    H1'12455   2.523   6.270   4.750  2.1938 -0.4862 -1.2381
  656EMI    H1'12456   2.459   6.429   4.694 -1.1547  0.9187  1.0591
  656EMI    H1'12457   2.346   6.309   4.750  0.1550 -0.7031  1.6850
  656EMI    C1"12458   2.267   6.109   4.279  0.2936 -0.4365 -0.1384
  656EMI    H1"12459   2.330   6.048   4.214 -2.3248 -0.3649  2.4262
  656EMI    H1"12460   2.211   6.183   4.226 -1.4734 -1.5805 -0.7032
  656EMI    C2"12461   2.161   6.024   4.348  1.2896 -0.4633  0.8570
  656EMI    H2"12462   2.101   6.094   4.398  0.4549 -1.3107  1.5166
  656EMI    H2"12463   2.096   5.974   4.272  1.6001 -0.2309 -0.9182
  656EMI    H2"12464   2.205   5.948   4.417  0.8709 -0.4522  1.0778
  657EMI     N112465   0.056   6.076   3.484 -0.4290  0.2966  0.2309
  657EMI     C212466  -0.050   6.006   3.531  0.7476  0.2966 -0.4783
  657EMI     N312467  -0.007   5.881   3.551 -0.0682  0.8338 -0.2686
  657EMI     C412468   0.123   5.867   3.501 -0.2619  0.1918 -0.0299
  657EMI     C512469   0.165   5.989   3.472  0.3670 -0.3552  0.7245
  657EMI     H212470  -0.149   6.046   3.558  0.8514 -2.1928 -0.1171
  657EMI     H412471   0.170   5.774   3.480  0.3786  0.8688 -0.5146
  657EMI     H512472   0.262   6.013   3.430  0.8696  1.2786  0.9396
  657EMI    C1'12473  -0.097   5.773   3.585  0.8660  0.2001  0.2082
  657EMI    H1'12474  -0.067   5.718   3.674  2.9334  0.9705 -1.5942
  657EMI    H1'12475  -0.198   5.810   3.608 -0.7973 -1.1659  1.7087
  657EMI    H1'12476  -0.107   5.701   3.500  0.0470 -1.5805  0.3006
  657EMI    C1"12477   0.079   6.220   3.458 -1.1534  0.2338  0.4066
  657EMI    H1"12478  -0.014   6.277   3.459 -2.1522 -1.6531  0.1243
  657EMI    H1"12479   0.129   6.227   3.361 -0.5898  0.4819 -0.8402
  657EMI    C2"12480   0.171   6.278   3.568 -0.0870  0.0148  0.4736
  657EMI    H2"12481   0.166   6.387   3.565  2.7317 -1.2646  1.7347
  657EMI    H2"12482   0.143   6.252   3.666  0.5361  0.5861  0.3374
  657EMI    H2"12483   0.278   6.259   3.552 -2.0979  2.1390  1.5665
  658EMI     N112484   1.099   5.860   2.001  1.0112 -0.5092 -0.1347
  658EMI     C212485   1.081   5.946   2.111  0.1593  0.2934 -0.4953
  658EMI     N312486   1.179   5.925   2.201  0.3157  0.5867  0.0681
  658EMI     C412487   1.251   5.812   2.155  0.2426 -0.2492 -0.1307
  658EMI     C512488   1.205   5.782   2.033  0.3253 -0.3766 -0.1167
  658EMI     H212489   0.996   6.011   2.121  0.0077 -0.8249 -1.2048
  658EMI     H412490   1.322   5.748   2.200  0.4399 -0.5621  0.0296
  658EMI     H512491   1.232   5.691   1.973 -1.0638 -1.8835  0.8712
  658EMI    C1'12492   1.179   5.956   2.341 -0.7484 -0.0908 -0.8986
  658EMI    H1'12493   1.103   6.039   2.376 -0.6039  1.2610 -0.6312
  658EMI    H1'12494   1.152   5.867   2.396 -2.0192 -1.2134  1.0758
  658EMI    H1'12495   1.284   5.980   2.369  2.1992 -0.3104  0.8869
  658EMI    C1"12496   1.021   5.848   1.877  0.3871  0.8965 -0.5187
  658EMI    H1"12497   0.955   5.758   1.877  0.3755 -0.6719 -2.2837
  658EMI    H1"12498   1.103   5.831   1.804  2.7099 -0.7653 -0.1812
  658EMI    C2"12499   0.945   5.967   1.823  0.2277  0.5840  0.1774
  658EMI    H2"12500   0.897   5.939   1.730  0.4790 -1.1748  0.7871
  658EMI    H2"12501   0.866   5.996   1.894 -1.9545  0.4468  1.8993
  658EMI    H2"12502   1.017   6.045   1.814 -0.2318 -0.9411  0.6916
  659EMI     N112503   4.945   4.579   5.597 -0.0166 -0.0026 -0.1364
  659EMI     C212504   4.915   4.630   5.721 -0.1027  0.1396  0.7452
  659EMI     N312505   5.028   4.676   5.776 -0.5654 -0.3060  0.0378
  659EMI     C412506   5.128   4.653   5.685 -0.0328 -0.1757  0.1450
  659EMI     C512507   5.080   4.581   5.581  0.0036  0.1252  0.4510
  659EMI     H212508   4.817   4.623   5.762 -0.0115 -1.6068  1.9675
  659EMI     H412509   5.231   4.658   5.708 -1.4773  0.8739 -1.5572
  659EMI     H512510   5.139   4.545   5.500  2.8860  0.8815 -1.3947
  659EMI    C1'12511   5.037   4.745   5.902 -0.1510 -0.6732 -0.4357
  659EMI    H1'12512   4.940   4.787   5.933 -2.6777  1.2156 -2.8749
  659EMI    H1'12513   5.072   4.677   5.981 -1.8125 -0.2381 -0.3129
  659EMI    H1'12514   5.109   4.830   5.891  0.9187 -0.3419  0.0456
  659EMI    C1"12515   4.846   4.522   5.495 -0.1252  0.0977 -0.8594
  659EMI    H1"12516   4.815   4.419   5.515 -1.7625  1.0435  0.4568
  659EMI    H1"12517   4.902   4.510   5.403 -1.4634  1.2336 -0.9375
  659EMI    C2"12518   4.723   4.610   5.493 -0.0298  0.1501  0.0193
  659EMI    H2"12519   4.660   4.571   5.415 -0.2679 -0.1093 -1.9234
  659EMI    H2"12520   4.666   4.602   5.581 -1.6865 -0.8136 -2.4839
  659EMI    H2"12521   4.746   4.713   5.462 -0.3740 -0.4956 -0.8557
  660EMI     N112522   4.612   2.321   6.439  0.1431  0.8087  0.0722
  660EMI     C212523   4.724   2.338   6.507 -0.6624  0.5117  0.2958
  660EMI     N312524   4.750   2.240   6.601 -0.3016 -0.2586  0.2261
  660EMI     C412525   4.641   2.157   6.599  0.1779  0.0625 -0.2132
  660EMI     C512526   4.555   2.211   6.505  0.8771  0.3022  0.5366
  660EMI     H212527   4.796   2.423   6.483  0.7145  0.6196 -2.8993
  660EMI     H412528   4.622   2.076   6.668 -1.3782 -1.8447 -0.6838
  660EMI     H512529   4.453   2.171   6.491 -1.0366  0.0119  0.9364
  660EMI    C1'12530   4.859   2.235   6.702  0.3120 -0.6240  0.7469
  660EMI    H1'12531   4.819   2.238   6.809 -0.4795 -1.1283 -0.8692
  660EMI    H1'12532   4.925   2.149   6.683  1.2512 -0.6709 -0.2082
  660EMI    H1'12533   4.913   2.331   6.692 -2.8517  1.6450 -0.0945
  660EMI    C1"12534   4.537   2.416   6.350 -0.1117  0.2718  0.1147
  660EMI    H1"12535   4.517   2.362   6.252  0.9599 -0.1714 -1.7538
  660EMI    H1"12536   4.593   2.504   6.319 -0.4895  2.6019 -0.1874
  660EMI    C2"12537   4.415   2.469   6.422  1.4052  0.0763 -0.5400
  660EMI    H2"12538   4.336   2.392   6.422 -1.9748 -2.4164  0.0797
  660EMI    H2"12539   4.437   2.519   6.515  1.4237 -0.3659  0.4275
  660EMI    H2"12540   4.366   2.552   6.364  0.4076  0.7879  0.0805
  661EMI     N112541   5.767   4.464   1.198  0.4892 -0.0147  0.6544
  661EMI     C212542   5.723   4.373   1.106  0.5183 -0.3720 -0.6938
  661EMI     N312543   5.753   4.403   0.981  0.0505  0.5161  0.4972
  661EMI     C412544   5.835   4.513   0.988 -0.5372  0.0275  0.0779
  661EMI     C512545   5.853   4.547   1.123 -0.1746 -0.5092  0.2152
  661EMI     H212546   5.680   4.279   1.135  1.0960 -1.1832  1.0585
  661EMI     H412547   5.867   4.578   0.904  0.4047 -1.8287 -1.9471
  661EMI     H512548   5.906   4.641   1.152  0.2560 -0.3659  0.3846
  661EMI    C1'12549   5.703   4.337   0.853 -0.2686 -0.4890 -0.6406
  661EMI    H1'12550   5.708   4.232   0.871 -1.1796  0.5531  0.2457
  661EMI    H1'12551   5.602   4.368   0.825  1.5444  0.4875  0.2703
  661EMI    H1'12552   5.768   4.344   0.768 -0.6444  0.6442  2.0012
  661EMI    C1"12553   5.765   4.463   1.349  0.2059 -0.3961  0.7309
  661EMI    H1"12554   5.727   4.558   1.379  1.5207 -0.5115 -3.4863
  661EMI    H1"12555   5.872   4.465   1.386  4.5088  0.5323  0.5655
  661EMI    C2"12556   5.688   4.351   1.420 -0.4326 -1.0093 -0.9779
  661EMI    H2"12557   5.734   4.250   1.400  0.2808 -1.5190 -1.9830
  661EMI    H2"12558   5.690   4.359   1.532  0.2988  1.7715 -1.2784
  661EMI    H2"12559   5.578   4.352   1.387  1.1021 -0.1867 -2.9359
  662EMI     N112560   5.925   6.307   4.418  0.1053  0.4218  0.3405
  662EMI     C212561   5.997   6.264   4.311  0.7919 -0.2405 -0.4424
  662EMI     N312562   5.966   6.348   4.211  0.4918  0.3414 -0.1396
  662EMI     C412563   5.873   6.438   4.252  0.6519  0.0808 -1.0506
  662EMI     C512564   5.850   6.418   4.381  0.1447 -0.2503 -0.2659
  662EMI     H212565   6.060   6.182   4.312  0.1384 -0.2193 -0.6643
  662EMI     H412566   5.841   6.510   4.187  0.2669 -3.1881  0.6979
  662EMI     H512567   5.774   6.482   4.437  1.1106 -3.4934  1.5170
  662EMI    C1'12568   6.016   6.346   4.073 -0.6335 -0.1677  0.2026
  662EMI    H1'12569   5.932   6.308   4.015  1.6982  1.9964  0.3088
  662EMI    H1'12570   6.046   6.448   4.042  1.0269  0.8454  0.9253
  662EMI    H1'12571   6.111   6.288   4.063 -1.5452 -0.9649 -0.6609
  662EMI    C1"12572   5.925   6.261   4.556 -0.0385 -0.1762  0.0361
  662EMI    H1"12573   5.917   6.345   4.632 -1.0519 -3.3751 -1.6143
  662EMI    H1"12574   6.021   6.212   4.583 -2.0251  0.5288  1.2530
  662EMI    C2"12575   5.809   6.163   4.576 -0.4615  0.1353  0.2133
  662EMI    H2"12576   5.713   6.208   4.594 -0.8953  0.9350 -0.4466
  662EMI    H2"12577   5.795   6.088   4.503 -1.0404  1.3770  2.6599
  662EMI    H2"12578   5.840   6.095   4.662 -0.0342 -0.1914 -0.6332
  663EMI     N112579   5.792   1.468   2.559 -0.0640  0.4035  0.4208
  663EMI     C212580   5.781   1.444   2.424 -0.1636 -0.3323 -0.6030
  663EMI     N312581   5.741   1.557   2.363 -0.7965  0.2966  0.2281
  663EMI     C412582   5.724   1.656   2.457  0.2782  0.2006 -1.0620
  663EMI     C512583   5.754   1.600   2.573 -0.0167 -0.5203 -0.7834
  663EMI     H212584   5.815   1.362   2.367 -4.4170 -0.4485 -0.9515
  663EMI     H412585   5.686   1.754   2.435  0.1122 -1.8273  1.4205
  663EMI     H512586   5.739   1.648   2.669 -1.1033  2.1551  0.3854
  663EMI    C1'12587   5.738   1.575   2.221  0.1914 -0.2314  0.1019
  663EMI    H1'12588   5.703   1.680   2.196  0.8224 -0.3177 -0.7078
  663EMI    H1'12589   5.838   1.568   2.171 -0.0971 -0.1186  0.1376
  663EMI    H1'12590   5.680   1.504   2.164 -1.2749  0.7719  0.8022
  663EMI    C1"12591   5.828   1.373   2.661 -0.1371  0.8234  0.3769
  663EMI    H1"12592   5.850   1.272   2.626  2.5316 -1.8879  1.2277
  663EMI    H1"12593   5.741   1.370   2.728  0.6166 -1.7695  3.5001
  663EMI    C2"12594   5.953   1.427   2.737 -0.2123 -0.8342 -0.3127
  663EMI    H2"12595   5.934   1.516   2.797 -0.3932  0.2388  1.2988
  663EMI    H2"12596   5.988   1.366   2.819  0.8045  1.8646  0.1517
  663EMI    H2"12597   6.030   1.447   2.661 -1.4402  0.0876 -0.1304
  664EMI     N112598   1.224   0.767   5.715 -0.1505 -0.2676 -0.1318
  664EMI     C212599   1.167   0.843   5.619 -0.5595  0.3882 -0.4516
  664EMI     N312600   1.071   0.921   5.670 -0.1445 -0.6401 -0.1807
  664EMI     C412601   1.063   0.889   5.805  0.7587  0.1652  0.2108
  664EMI     C512602   1.148   0.790   5.831  0.3136 -0.9567  0.0127
  664EMI     H212603   1.200   0.849   5.513 -1.5841  2.4369 -1.6514
  664EMI     H412604   0.998   0.943   5.869  2.6552 -2.2723 -1.6869
  664EMI     H512605   1.150   0.744   5.923  1.6351 -0.6555  0.5028
  664EMI    C1'12606   1.007   1.033   5.602 -0.1273 -0.1021  0.2986
  664EMI    H1'12607   1.084   1.074   5.536  0.2911 -2.7117  1.7562
  664EMI    H1'12608   0.922   1.000   5.539 -0.5408  0.0858  2.8573
  664EMI    H1'12609   0.970   1.103   5.679 -1.0707  3.5370 -1.4580
  664EMI    C1"12610   1.324   0.658   5.711 -0.4526  0.7450 -0.4305
  664EMI    H1"12611   1.388   0.669   5.795 -1.1847  1.3528 -2.6597
  664EMI    H1"12612   1.386   0.664   5.624 -0.7250  1.9139 -2.5897
  664EMI    C2"12613   1.259   0.519   5.701  0.6440 -0.0140 -0.1848
  664EMI    H2"12614   1.330   0.450   5.745  1.1740  1.5461 -0.1196
  664EMI    H2"12615   1.164   0.510   5.755  1.0089 -1.7335 -0.6543
  664EMI    H2"12616   1.258   0.485   5.597  1.8191 -0.0220 -1.2074
  665EMI     N112617   4.855   2.516   1.033 -0.3180  0.6048 -0.4429
  665EMI     C212618   4.776   2.615   1.077  0.0186  0.0673  0.4214
  665EMI     N312619   4.698   2.575   1.177 -0.4458 -0.2834 -0.2379
  665EMI     C412620   4.722   2.447   1.197 -0.0419 -0.1567 -0.2388
  665EMI     C512621   4.817   2.406   1.108 -0.4618  0.3639  0.8692
  665EMI     H212622   4.778   2.715   1.032  2.2013  2.4466 -0.0337
  665EMI     H412623   4.680   2.380   1.273 -1.0887  0.3208 -2.3966
  665EMI     H512624   4.868   2.306   1.115  2.3847  1.9387  1.4759
  665EMI    C1'12625   4.610   2.656   1.264 -0.8791 -0.5306  0.2024
  665EMI    H1'12626   4.507   2.654   1.230 -3.2373  1.4674 -2.3687
  665EMI    H1'12627   4.616   2.604   1.360 -1.6686 -0.9462 -1.1934
  665EMI    H1'12628   4.654   2.754   1.279  2.9385  0.6913  0.2210
  665EMI    C1"12629   4.969   2.513   0.939 -0.1464 -0.7769  0.9305
  665EMI    H1"12630   4.939   2.560   0.840  2.1896  1.5439  0.6529
  665EMI    H1"12631   4.999   2.408   0.914  0.6057 -1.7639 -0.3009
  665EMI    C2"12632   5.084   2.594   0.998  0.9929  0.0096  0.4579
  665EMI    H2"12633   5.050   2.702   0.998 -1.3033  1.3597  1.5123
  665EMI    H2"12634   5.095   2.567   1.099 -1.5334  1.0661 -0.7133
  665EMI    H2"12635   5.176   2.587   0.945  1.3315 -1.0798  0.0740
  666EMI     N112636   6.336   3.590   0.826 -0.2550  0.2508 -0.4403
  666EMI     C212637   6.389   3.569   0.701 -0.7435  0.1020 -0.1628
  666EMI     N312638   6.410   3.686   0.639  0.0484  0.5966 -0.0848
  666EMI     C412639   6.374   3.782   0.736 -0.3633  0.4047 -0.5588
  666EMI     C512640   6.335   3.729   0.852 -0.4058 -0.6366  0.3635
  666EMI     H212641   6.398   3.480   0.639 -0.4567 -0.4923  0.4469
  666EMI     H412642   6.383   3.887   0.727  3.4499 -0.0495  0.4958
  666EMI     H512643   6.312   3.783   0.937  1.9395  0.8105 -2.2802
  666EMI    C1'12644   6.465   3.709   0.506 -0.0170  0.1816  0.3319
  666EMI    H1'12645   6.497   3.809   0.487 -0.6248  1.1268 -2.1161
  666EMI    H1'12646   6.559   3.646   0.492  0.5781 -1.4714 -1.7431
  666EMI    H1'12647   6.390   3.667   0.434  3.1001 -2.7983  1.1015
  666EMI    C1"12648   6.311   3.489   0.928 -0.2335 -0.4229 -0.1175
  666EMI    H1"12649   6.361   3.524   1.020  0.8067  1.2889 -0.1453
  666EMI    H1"12650   6.368   3.405   0.892  2.2743  0.9580 -1.3262
  666EMI    C2"12651   6.164   3.458   0.948  0.2995  0.0816 -0.0748
  666EMI    H2"12652   6.102   3.538   0.987  1.6898 -0.5898  0.6041
  666EMI    H2"12653   6.126   3.429   0.855  1.1870  3.5615  1.0039
  666EMI    H2"12654   6.158   3.371   1.018 -1.5415 -0.0533  2.6747
  667EMI     N112655   6.439   2.145   3.616 -0.3941  0.1189 -0.6287
  667EMI     C212656   6.367   2.210   3.520  0.6569  0.3146  0.0299
  667EMI     N312657   6.429   2.208   3.401  0.1542 -0.1560  0.8195
  667EMI     C412658   6.547   2.142   3.419 -0.7225  0.7452  0.3380
  667EMI     C512659   6.557   2.105   3.550  0.2008  0.0531 -0.2855
  667EMI     H212660   6.265   2.249   3.522 -1.1026 -0.7743  1.6424
  667EMI     H412661   6.635   2.138   3.354  1.1910  1.0259  1.7348
  667EMI     H512662   6.649   2.058   3.593  1.1924 -3.2087  1.8302
  667EMI    C1'12663   6.391   2.259   3.272  0.2518  0.6861  0.7254
  667EMI    H1'12664   6.458   2.236   3.188  0.7224  1.3159 -1.1765
  667EMI    H1'12665   6.290   2.243   3.245  0.2781  1.6220  1.2701
  667EMI    H1'12666   6.391   2.362   3.287  0.5611 -2.4015  0.8343
  667EMI    C1"12667   6.419   2.118   3.759  0.5522  0.3491  0.3087
  667EMI    H1"12668   6.383   2.212   3.805  1.7695 -1.9425 -1.1696
  667EMI    H1"12669   6.517   2.100   3.816 -1.3497  1.6856  1.5635
  667EMI    C2"12670   6.330   1.999   3.791 -0.3591 -0.4630  0.3384
  667EMI    H2"12671   6.321   2.008   3.902  3.6737 -1.2320  0.5368
  667EMI    H2"12672   6.237   2.011   3.733 -0.3779  1.9618 -0.0783
  667EMI    H2"12673   6.374   1.899   3.758 -0.8566  0.3998 -0.8267
  668EMI     N112674   0.191   4.561   1.659 -0.0332  0.3959  0.5627
  668EMI     C212675   0.219   4.679   1.611  0.3839  0.0741  0.2110
  668EMI     N312676   0.277   4.668   1.493 -0.0109 -0.1614  0.0842
  668EMI     C412677   0.303   4.539   1.469  0.7243 -0.2981 -0.2351
  668EMI     C512678   0.243   4.472   1.567 -0.0277  0.2894 -0.0526
  668EMI     H212679   0.212   4.770   1.670 -0.4588  0.5488  1.4323
  668EMI     H412680   0.342   4.481   1.385  0.4902  1.4093 -2.2280
  668EMI     H512681   0.254   4.367   1.579  2.3252  4.4808 -1.5271
  668EMI    C1'12682   0.328   4.772   1.407 -0.0907  0.4287 -0.0176
  668EMI    H1'12683   0.406   4.732   1.344  3.8555  1.4509 -1.2306
  668EMI    H1'12684   0.251   4.823   1.349  0.0268 -0.0925 -2.2307
  668EMI    H1'12685   0.372   4.841   1.472 -0.9453 -1.9446  0.8452
  668EMI    C1"12686   0.126   4.522   1.791  0.2669 -1.0858 -0.1275
  668EMI    H1"12687   0.163   4.589   1.872  0.0127 -1.9160  1.7404
  668EMI    H1"12688   0.150   4.423   1.824  0.5291 -3.8523  2.1065
  668EMI    C2"12689  -0.026   4.554   1.779  0.2071  0.0203 -0.5356
  668EMI    H2"12690  -0.067   4.529   1.877  1.5933 -0.5205 -0.5971
  668EMI    H2"12691  -0.042   4.656   1.753  1.9509  0.6447 -0.3245
  668EMI    H2"12692  -0.076   4.487   1.710 -1.3019 -0.3782 -0.0427
  669EMI     N112693   2.722   0.358   1.223 -0.3701  0.5969  0.1777
  669EMI     C212694   2.668   0.270   1.137  0.4092 -0.2939 -1.1670
  669EMI     N312695   2.717   0.149   1.160  0.5859  0.6660  0.2582
  669EMI     C412696   2.813   0.163   1.261  0.3038  0.1205  0.0197
  669EMI     C512697   2.817   0.293   1.298  0.4911  0.2689  0.1490
  669EMI     H212698   2.582   0.287   1.070  1.7393 -0.5010  1.7535
  669EMI     H412699   2.868   0.079   1.311  2.5994 -1.6239 -0.9476
  669EMI     H512700   2.881   0.338   1.366 -1.4061  1.9566 -1.0648
  669EMI    C1'12701   2.679   0.017   1.106  0.8642  0.8087  0.7507
  669EMI    H1'12702   2.629   0.032   1.010 -1.3405  1.3213 -0.2004
  669EMI    H1'12703   2.764  -0.050   1.107 -0.2351  0.1122 -1.6936
  669EMI    H1'12704   2.610  -0.032   1.164  3.8448  2.0238  3.0913
  669EMI    C1"12705   2.714   0.505   1.231  0.4939 -0.0909  0.0001
  669EMI    H1"12706   2.776   0.548   1.150 -0.0900 -1.4000 -0.8932
  669EMI    H1"12707   2.745   0.534   1.334  1.2581 -1.1530 -1.3426
  669EMI    C2"12708   2.568   0.538   1.198 -0.7322 -0.7042 -0.0320
  669EMI    H2"12709   2.559   0.651   1.188 -0.6551  3.1052 -3.0215
  669EMI    H2"12710   2.530   0.490   1.111 -1.0745 -0.5657  1.9681
  669EMI    H2"12711   2.510   0.488   1.287  0.1965 -1.6871  0.1746
  670EMI     N112712   5.288   3.801   0.757  0.1622  0.0926 -0.2203
  670EMI     C212713   5.378   3.897   0.771  0.5081 -0.4243  0.1097
  670EMI     N312714   5.311   4.007   0.803  0.3542 -0.1310 -0.0043
  670EMI     C412715   5.174   3.982   0.800  0.5284 -0.4495  0.3959
  670EMI     C512716   5.163   3.847   0.769 -0.1699 -0.2818 -0.2500
  670EMI     H212717   5.489   3.896   0.759  0.3096  0.5787  3.0448
  670EMI     H412718   5.091   4.050   0.812  0.0729 -2.1140 -3.4472
  670EMI     H512719   5.067   3.800   0.761  0.2842  0.9706  2.3876
  670EMI    C1'12720   5.359   4.135   0.840 -0.7432 -0.9198 -0.1331
  670EMI    H1'12721   5.347   4.146   0.946  0.2111  1.3431 -0.9706
  670EMI    H1'12722   5.464   4.134   0.817  0.1462 -1.4951  1.4123
  670EMI    H1'12723   5.311   4.215   0.780  0.1904 -0.4620 -0.7136
  670EMI    C1"12724   5.304   3.660   0.714 -0.4244 -0.6829  0.0073
  670EMI    H1"12725   5.230   3.610   0.779  1.7877 -0.1287  1.5312
  670EMI    H1"12726   5.397   3.610   0.740  0.4505 -0.5990 -0.0066
  670EMI    C2"12727   5.278   3.646   0.561 -0.8386 -0.2746  0.1026
  670EMI    H2"12728   5.197   3.724   0.529 -2.3017  0.7673  0.8468
  670EMI    H2"12729   5.377   3.661   0.507 -0.3097  0.7546 -1.0617
  670EMI    H2"12730   5.234   3.551   0.543  0.0971  0.1905  2.0621
  671EMI     N112731   0.692   4.235   2.318  0.7772 -0.7871 -0.3995
  671EMI     C212732   0.582   4.183   2.263  1.0083 -0.5588 -0.1233
  671EMI     N312733   0.478   4.196   2.339  0.0809  0.5824  0.3970
  671EMI     C412734   0.524   4.240   2.460 -0.0231 -0.3567 -1.0196
  671EMI     C512735   0.657   4.266   2.449  0.3362  0.2883 -0.6212
  671EMI     H212736   0.580   4.145   2.164 -1.5844  3.1298  4.2255
  671EMI     H412737   0.464   4.262   2.548 -0.8293 -0.8543  2.8182
  671EMI     H512738   0.724   4.291   2.527 -1.2260  0.8388  0.7026
  671EMI    C1'12739   0.342   4.128   2.312  0.0542 -0.2794  0.2044
  671EMI    H1'12740   0.327   4.123   2.201 -3.2365 -0.9280 -2.2874
  671EMI    H1'12741   0.344   4.027   2.345 -1.3850  0.3274  0.3859
  671EMI    H1'12742   0.270   4.190   2.368 -0.0897 -1.3686 -0.1884
  671EMI    C1"12743   0.837   4.243   2.266  0.0678 -0.9471  0.0046
  671EMI    H1"12744   0.909   4.209   2.348  0.3181 -0.1453  3.2310
  671EMI    H1"12745   0.862   4.348   2.241  1.4524 -2.4628  2.7752
  671EMI    C2"12746   0.860   4.151   2.149 -0.0411  0.2735 -0.2831
  671EMI    H2"12747   0.787   4.183   2.069  1.8824 -3.2295  1.3573
  671EMI    H2"12748   0.961   4.130   2.118  1.6067  0.8522  0.7079
  671EMI    H2"12749   0.817   4.051   2.172  0.2130 -1.0827  0.0703
  672EMI     N112750   0.076   2.290   4.286  0.4053  0.1513  0.2328
  672EMI     C212751   0.007   2.320   4.400  0.5368  0.2177 -0.4688
  672EMI     N312752   0.083   2.272   4.505  0.1992  0.4175 -0.3024
  672EMI     C412753   0.185   2.196   4.454  0.0576  0.8188 -0.1704
  672EMI     C512754   0.191   2.215   4.323 -0.0955  0.1757  0.5384
  672EMI     H212755  -0.081   2.365   4.411 -0.8930 -2.4373 -0.2749
  672EMI     H412756   0.253   2.130   4.512  1.2110 -1.1077  1.2951
  672EMI     H512757   0.247   2.160   4.251 -0.3309  1.7030 -0.2409
  672EMI    C1'12758   0.083   2.291   4.655 -0.5749  0.6305  0.2685
  672EMI    H1'12759   0.116   2.384   4.691  0.0495 -1.6444 -0.8537
  672EMI    H1'12760  -0.021   2.289   4.684 -0.8514 -0.1494  0.2282
  672EMI    H1'12761   0.145   2.216   4.700 -2.0932  3.3482 -0.4530
  672EMI    C1"12762   0.038   2.306   4.148  0.2011 -0.5984  0.0187
  672EMI    H1"12763  -0.032   2.232   4.118  3.8401 -2.2693 -1.0239
  672EMI    H1"12764   0.121   2.303   4.078 -1.0088  1.2981 -0.0226
  672EMI    C2"12765  -0.023   2.441   4.138  0.2917  0.4013 -0.2040
  672EMI    H2"12766  -0.069   2.450   4.033 -1.3102 -0.6649 -1.7561
  672EMI    H2"12767  -0.109   2.447   4.208 -2.1981 -0.1053  2.3476
  672EMI    H2"12768   0.049   2.520   4.160  0.9935  2.3603  1.5722
  673EMI     N112769   3.394   6.627   3.251  0.0590 -0.6560 -0.6677
  673EMI     C212770   3.520   6.655   3.242 -0.1689 -0.5032  0.2988
  673EMI     N312771   3.577   6.611   3.357  0.2538  0.4556 -0.2370
  673EMI     C412772   3.482   6.559   3.440  0.5862 -0.3790 -0.1188
  673EMI     C512773   3.369   6.562   3.371 -0.3988  0.0584  0.5633
  673EMI     H212774   3.566   6.697   3.155  0.6370  0.2887 -1.2829
  673EMI     H412775   3.506   6.513   3.539  0.8359 -0.8870 -0.7920
  673EMI     H512776   3.274   6.524   3.407 -1.1773 -0.7084 -1.0811
  673EMI    C1'12777   3.717   6.617   3.397  0.0253  0.6574  0.4765
  673EMI    H1'12778   3.789   6.562   3.337  0.0773  1.8489  3.9152
  673EMI    H1'12779   3.741   6.720   3.396 -1.9531 -0.0630 -0.1322
  673EMI    H1'12780   3.737   6.589   3.495  1.2510 -2.2048 -2.7907
  673EMI    C1"12781   3.284   6.664   3.156  0.4937  0.0571 -0.3393
  673EMI    H1"12782   3.255   6.767   3.163 -0.5772 -1.9978  1.3489
  673EMI    H1"12783   3.189   6.624   3.185 -1.4312 -0.9219  1.7345
  673EMI    C2"12784   3.319   6.635   3.007  0.6373 -0.9650  0.0757
  673EMI    H2"12785   3.245   6.685   2.941  2.2302  1.1890  0.2406
  673EMI    H2"12786   3.417   6.679   2.981 -2.2334 -1.8959  0.8853
  673EMI    H2"12787   3.312   6.527   2.983 -1.2102  1.9545  0.0212
  674EMI     N112788   4.086   5.219   6.664  0.0744 -0.0731 -0.4990
  674EMI     C212789   4.179   5.235   6.759  1.1029 -0.3852 -0.0862
  674EMI     N312790   4.143   5.173   6.874  0.3169  0.1707  0.1448
  674EMI     C412791   4.020   5.121   6.848 -0.4793 -0.1880  0.6893
  674EMI     C512792   3.986   5.144   6.721  0.3720  0.6251  0.7018
  674EMI     H212793   4.275   5.286   6.742 -0.3498  1.3643 -0.3485
  674EMI     H412794   3.962   5.055   6.921 -0.7866 -1.7442 -0.6689
  674EMI     H512795   3.892   5.097   6.676 -1.6328  0.1036 -2.8639
  674EMI    C1'12796   4.208   5.174   7.009 -0.3606  0.3783  0.4900
  674EMI    H1'12797   4.313   5.196   7.005 -1.0232 -1.7948  1.2146
  674EMI    H1'12798   4.159   5.245   7.073 -0.4538 -1.8715  3.0677
  674EMI    H1'12799   4.200   5.078   7.058  1.5526 -3.0188  2.5889
  674EMI    C1"12800   4.076   5.262   6.527  0.2779  0.1421 -0.1614
  674EMI    H1"12801   4.093   5.371   6.523  1.1023  0.0206  1.0723
  674EMI    H1"12802   3.974   5.245   6.486 -0.9248  1.1336  0.9894
  674EMI    C2"12803   4.184   5.186   6.446  0.1914 -0.1135  0.4436
  674EMI    H2"12804   4.139   5.176   6.342  0.3276 -1.8080  2.0796
  674EMI    H2"12805   4.279   5.227   6.452 -0.8856 -2.6559  0.1930
  674EMI    H2"12806   4.191   5.082   6.481 -0.8565  0.5558  3.0599
  675EMI     N112807   4.235   6.808   4.917  0.6575 -0.1291 -0.6812
  675EMI     C212808   4.109   6.837   4.957 -0.0072 -0.1017  0.1284
  675EMI     N312809   4.024   6.763   4.886  0.0255  0.2058 -0.8300
  675EMI     C412810   4.095   6.679   4.805 -0.9698  0.8428  0.3146
  675EMI     C512811   4.226   6.700   4.831 -0.2556 -0.0298  0.2917
  675EMI     H212812   4.075   6.917   5.014 -0.5281  0.8422 -1.5312
  675EMI     H412813   4.054   6.617   4.730 -0.6737  0.4515 -2.3292
  675EMI     H512814   4.306   6.646   4.787  3.9815 -1.2119 -0.6953
  675EMI    C1'12815   3.880   6.771   4.873  0.4438 -0.0505  0.1260
  675EMI    H1'12816   3.845   6.848   4.944  1.8674  1.3798  1.2832
  675EMI    H1'12817   3.842   6.805   4.776  0.1326  0.1533 -0.4426
  675EMI    H1'12818   3.846   6.664   4.895 -0.2100 -1.1247 -0.0124
  675EMI    C1"12819   4.365   6.869   4.949 -0.7598  0.0472  0.0889
  675EMI    H1"12820   4.401   6.912   4.860  0.2386  1.0743 -1.2892
  675EMI    H1"12821   4.440   6.794   4.981  0.4301  1.0161  0.4083
  675EMI    C2"12822   4.355   6.981   5.055 -0.3632 -0.1675  0.9064
  675EMI    H2"12823   4.456   7.024   5.059  1.0926  2.6836 -1.8905
  675EMI    H2"12824   4.288   7.058   5.031 -0.3671  2.0045  2.2149
  675EMI    H2"12825   4.325   6.948   5.150 -2.3632  1.6174  0.5487
  676EMI     N112826   5.168   2.025   5.950  0.3030  0.5142 -0.7205
  676EMI     C212827   5.111   1.900   5.969 -0.1425 -0.0778  0.3975
  676EMI     N312828   5.001   1.883   5.897  0.2284 -0.3836  0.4331
  676EMI     C412829   4.980   2.005   5.836  0.1153  0.1621 -0.2574
  676EMI     C512830   5.080   2.089   5.865  0.2293 -0.0506 -0.1974
  676EMI     H212831   5.167   1.828   6.016  1.8719 -0.4332  2.8474
  676EMI     H412832   4.893   2.019   5.774  0.4466 -1.6232 -2.8000
  676EMI     H512833   5.079   2.190   5.833 -1.7281 -0.2714  0.4827
  676EMI    C1'12834   4.929   1.760   5.870 -1.0000 -0.0024 -0.4888
  676EMI    H1'12835   4.948   1.696   5.959  1.2370  3.8476  0.7178
  676EMI    H1'12836   4.822   1.772   5.837  1.6192  1.4233 -2.5664
  676EMI    H1'12837   4.978   1.702   5.795 -0.1440  0.8784  0.2634
  676EMI    C1"12838   5.293   2.088   6.004  0.1472 -0.4010  0.1791
  676EMI    H1"12839   5.367   2.090   5.917  0.0430  1.3030 -0.3902
  676EMI    H1"12840   5.333   2.021   6.079 -0.7789 -1.7240 -1.4738
  676EMI    C2"12841   5.277   2.219   6.075  0.1026  0.3998 -0.0740
  676EMI    H2"12842   5.379   2.247   6.116  1.1818  0.8387 -0.8566
  676EMI    H2"12843   5.240   2.287   6.001 -1.6105 -0.5946 -0.1064
  676EMI    H2"12844   5.203   2.205   6.157 -0.8101 -0.7335  1.9695
  677EMI     N112845   0.912   0.677   4.999 -0.1548  0.7890 -0.4378
  677EMI     C212846   0.944   0.635   4.873  0.4104  0.3210  0.0078
  677EMI     N312847   0.933   0.501   4.864  0.1995 -0.4032 -0.9167
  677EMI     C412848   0.885   0.463   4.987 -0.2329 -0.0313  0.6287
  677EMI     C512849   0.877   0.567   5.072 -0.3213 -0.3117  0.1330
  677EMI     H212850   0.990   0.692   4.799  0.7071 -0.0948 -1.2610
  677EMI     H412851   0.857   0.361   5.006  0.1048 -2.5466  1.3107
  677EMI     H512852   0.833   0.569   5.165  0.2533  0.7074  0.9388
  677EMI    C1'12853   0.976   0.409   4.759  0.0399  0.4951  0.4567
  677EMI    H1'12854   0.994   0.307   4.790 -0.6834  0.3162 -0.5729
  677EMI    H1'12855   0.890   0.411   4.687 -1.3114  0.4847 -1.2354
  677EMI    H1'12856   1.073   0.429   4.714 -2.0836  0.2922  1.4646
  677EMI    C1"12857   0.893   0.808   5.053 -0.8633  0.0677 -1.2315
  677EMI    H1"12858   0.942   0.812   5.152 -0.8467  2.6768  2.3837
  677EMI    H1"12859   0.788   0.825   5.076  0.8666 -1.6823 -4.2614
  677EMI    C2"12860   0.954   0.925   4.962  0.1753 -0.0669  0.1389
  677EMI    H2"12861   0.914   0.925   4.852  0.1648  1.3206  0.5298
  677EMI    H2"12862   0.920   1.017   5.006  0.9074 -0.7860  0.7167
  677EMI    H2"12863   1.066   0.913   4.966  0.8528 -2.2304 -1.3584
  678EMI     N112864   4.926   4.944   2.613 -0.2178 -0.2463  0.1086
  678EMI     C212865   4.792   4.909   2.624 -0.7843  0.4365 -0.0952
  678EMI     N312866   4.768   4.799   2.556 -0.8107 -0.6105  0.0467
  678EMI     C412867   4.881   4.761   2.494 -0.3438  0.2306 -0.8460
  678EMI     C512868   4.983   4.844   2.540  0.1513  0.3485  0.2082
  678EMI     H212869   4.718   4.971   2.670 -0.4875  3.2414  0.7956
  678EMI     H412870   4.886   4.673   2.428  0.9006 -1.7204  1.2482
  678EMI     H512871   5.084   4.835   2.496  2.0528  0.6450  0.7374
  678EMI    C1'12872   4.645   4.730   2.517 -0.3785  0.5220 -0.6484
  678EMI    H1'12873   4.654   4.701   2.414  1.7530 -3.2414 -0.3269
  678EMI    H1'12874   4.631   4.638   2.582  0.4840  1.5131  0.8069
  678EMI    H1'12875   4.564   4.809   2.524 -1.0915  2.2836  2.4377
  678EMI    C1"12876   5.005   5.065   2.652 -0.0993 -0.4741  0.3445
  678EMI    H1"12877   4.978   5.145   2.580 -1.1597 -1.4338  0.5700
  678EMI    H1"12878   5.111   5.047   2.648 -0.7142 -0.6129  1.4831
  678EMI    C2"12879   4.956   5.115   2.785  0.4914  0.9411  0.7185
  678EMI    H2"12880   4.995   5.050   2.850  0.6704  0.0840 -3.2200
  678EMI    H2"12881   4.989   5.214   2.809 -2.9590  1.8276 -1.2054
  678EMI    H2"12882   4.845   5.109   2.786  2.6040 -0.2797 -0.1099
  679EMI     N112883   2.588   4.778   5.394 -0.5289  0.4100 -0.7837
  679EMI     C212884   2.718   4.807   5.378  0.0933  0.7284 -0.1453
  679EMI     N312885   2.736   4.839   5.250 -0.1100  0.0618  0.1328
  679EMI     C412886   2.616   4.826   5.183  0.3250  0.0366 -0.1869
  679EMI     C512887   2.524   4.794   5.274  0.2908 -0.2792  0.0367
  679EMI     H212888   2.789   4.789   5.448  0.1977  1.6591  0.1881
  679EMI     H412889   2.605   4.844   5.078  0.0661 -0.8861  1.0148
  679EMI     H512890   2.417   4.776   5.254 -0.2479  1.4854 -1.5327
  679EMI    C1'12891   2.859   4.863   5.181 -0.1981  0.6195  0.0891
  679EMI    H1'12892   2.947   4.816   5.236 -2.1653 -0.2234  3.8272
  679EMI    H1'12893   2.858   4.822   5.085  0.5027 -0.9814  2.2165
  679EMI    H1'12894   2.883   4.967   5.162 -0.2778  1.9268 -0.0495
  679EMI    C1"12895   2.514   4.721   5.505 -0.2150 -0.7291 -0.1203
  679EMI    H1"12896   2.584   4.658   5.565  1.0594 -0.2568  0.6775
  679EMI    H1"12897   2.426   4.663   5.468  3.6966 -3.9253  0.4636
  679EMI    C2"12898   2.470   4.844   5.585  0.3098  0.3902 -0.0123
  679EMI    H2"12899   2.547   4.901   5.624  1.7584  0.5848  0.8865
  679EMI    H2"12900   2.409   4.914   5.522  1.4769 -0.4323 -2.7789
  679EMI    H2"12901   2.414   4.819   5.667  0.1080  0.2648 -3.1619
  680EMI     N112902   4.918   1.605   6.375  0.3532 -0.2492  0.3951
  680EMI     C212903   5.016   1.676   6.425 -0.0881  0.2748  0.2141
  680EMI     N312904   5.121   1.592   6.452  0.4298  0.3049  0.1442
  680EMI     C412905   5.078   1.463   6.416  0.0768 -0.8733  0.7746
  680EMI     C512906   4.956   1.474   6.367 -0.0975 -0.0250 -0.2237
  680EMI     H212907   5.026   1.788   6.427  0.6936 -1.0088 -2.0545
  680EMI     H412908   5.132   1.377   6.437  0.0470  0.4221  0.7394
  680EMI     H512909   4.897   1.394   6.324  0.7002 -0.3503 -0.0330
  680EMI    C1'12910   5.242   1.615   6.529  0.0261  0.1074  0.0072
  680EMI    H1'12911   5.326   1.592   6.465 -0.4767 -0.9122  2.0938
  680EMI    H1'12912   5.245   1.721   6.569 -2.8298  2.9049  1.0215
  680EMI    H1'12913   5.256   1.545   6.611 -0.8586  0.1440 -0.2340
  680EMI    C1"12914   4.791   1.652   6.319  0.1600 -0.0823  0.3085
  680EMI    H1"12915   4.746   1.718   6.397 -0.6273  1.4470  1.7802
  680EMI    H1"12916   4.728   1.572   6.283 -1.1881 -0.1948  0.4190
  680EMI    C2"12917   4.817   1.745   6.203 -0.1020 -1.0299 -0.1784
  680EMI    H2"12918   4.854   1.687   6.127 -3.0992  1.7525 -0.6508
  680EMI    H2"12919   4.725   1.786   6.173 -0.5714 -0.7459  0.8324
  680EMI    H2"12920   4.886   1.824   6.233  2.0142 -0.7929  2.2326
  681EMI     N112921   1.792   3.926   4.098 -0.3992  0.2854 -0.6688
  681EMI     C212922   1.922   3.941   4.066 -0.2971  0.6587  0.1508
  681EMI     N312923   1.995   3.840   4.109 -0.4422  0.3197 -0.3656
  681EMI     C412924   1.914   3.746   4.165  0.1765  0.0474  0.3777
  681EMI     C512925   1.784   3.795   4.151 -0.3596 -0.3852  0.0148
  681EMI     H212926   1.967   4.013   4.010 -0.1631 -4.2341 -1.0612
  681EMI     H412927   1.949   3.655   4.205 -0.6845  0.3882  0.4353
  681EMI     H512928   1.703   3.744   4.195 -0.2729 -2.0468 -0.1456
  681EMI    C1'12929   2.132   3.804   4.087 -0.4016  0.2255  0.2230
  681EMI    H1'12930   2.136   3.705   4.044 -0.8145 -1.2952 -1.3817
  681EMI    H1'12931   2.161   3.864   4.005  1.9220  1.8338  2.9093
  681EMI    H1'12932   2.199   3.817   4.174  2.1848 -2.0787 -0.0465
  681EMI    C1"12933   1.669   4.002   4.052  0.0209  0.2867  0.6854
  681EMI    H1"12934   1.688   4.055   3.956 -1.3969  1.1605 -1.3147
  681EMI    H1"12935   1.647   4.077   4.131  0.5154 -0.1392 -0.6194
  681EMI    C2"12936   1.542   3.919   4.033  0.2741  0.4736 -0.4788
  681EMI    H2"12937   1.581   3.833   3.978  0.9553  3.4400  1.5001
  681EMI    H2"12938   1.504   3.903   4.131  1.0421  0.4891  2.1621
  681EMI    H2"12939   1.472   3.977   3.974  2.1092  0.8654 -1.2715
  682EMI     N112940   3.309   3.984   2.828  0.0364 -0.0635 -0.8303
  682EMI     C212941   3.217   3.942   2.918  0.7087 -0.4076 -0.4195
  682EMI     N312942   3.277   3.910   3.033  0.1706  0.3311 -0.4413
  682EMI     C412943   3.413   3.920   3.011  0.5393 -0.1181 -0.2472
  682EMI     C512944   3.435   3.970   2.886  0.7137  0.0112  0.2356
  682EMI     H212945   3.115   3.968   2.902 -0.8107 -0.4702 -0.7615
  682EMI     H412946   3.484   3.903   3.091  1.7439 -0.7259 -1.9848
  682EMI     H512947   3.534   3.992   2.838  4.0801 -0.5164  1.2105
  682EMI    C1'12948   3.218   3.897   3.160  0.9930 -0.4956  0.0958
  682EMI    H1'12949   3.158   3.988   3.180  1.8220 -0.0444 -0.9755
  682EMI    H1'12950   3.155   3.810   3.154  0.3992  1.8748  0.2124
  682EMI    H1'12951   3.289   3.868   3.231  0.3086  2.4964  0.5668
  682EMI    C1"12952   3.301   4.055   2.700  0.1971 -0.2816 -0.3519
  682EMI    H1"12953   3.219   4.016   2.640  0.2053 -1.2276  0.7691
  682EMI    H1"12954   3.399   4.032   2.652  0.3617 -0.4210 -0.6555
  682EMI    C2"12955   3.288   4.209   2.731  0.9270  0.4401  0.3456
  682EMI    H2"12956   3.283   4.269   2.636  0.9968 -1.5447 -0.8912
  682EMI    H2"12957   3.198   4.237   2.791 -0.3026  1.0367 -0.2621
  682EMI    H2"12958   3.374   4.248   2.785  1.5164  2.2275  0.2001
  683EMI     N112959   1.003   2.181   1.803  0.3983  0.0777 -0.1042
  683EMI     C212960   0.879   2.207   1.759 -0.2505  0.2772  0.6014
  683EMI     N312961   0.873   2.188   1.623 -0.5725  0.1352  0.4067
  683EMI     C412962   0.997   2.148   1.584 -0.2698 -0.0396  0.1715
  683EMI     C512963   1.076   2.142   1.690 -0.2893 -0.1249  0.0628
  683EMI     H212964   0.789   2.226   1.815 -2.1043  0.7719 -1.4249
  683EMI     H412965   1.015   2.132   1.479 -0.4698  1.4522 -1.1336
  683EMI     H512966   1.172   2.115   1.702 -2.6320 -0.9615 -1.4862
  683EMI    C1'12967   0.757   2.193   1.535 -0.3155 -0.0292  0.4730
  683EMI    H1'12968   0.675   2.133   1.576  0.1050  1.1977  1.2206
  683EMI    H1'12969   0.742   2.295   1.521  0.9702 -1.0953  0.5212
  683EMI    H1'12970   0.780   2.136   1.445 -1.3416  1.7135  1.0177
  683EMI    C1"12971   1.060   2.195   1.944 -0.0827  0.5856 -0.0365
  683EMI    H1"12972   1.068   2.095   1.992  1.7347 -0.3053 -1.4730
  683EMI    H1"12973   0.988   2.259   2.005  1.0709  0.3483  2.9816
  683EMI    C2"12974   1.192   2.264   1.944 -0.4001  0.4994 -0.3394
  683EMI    H2"12975   1.230   2.269   2.040  0.8746 -3.1461 -0.9303
  683EMI    H2"12976   1.253   2.200   1.887  0.8007 -3.3828 -0.2512
  683EMI    H2"12977   1.185   2.367   1.899  0.5767 -0.6582 -0.8274
  684EMI     N112978   0.722   6.143   5.102 -0.7766  0.1798  0.5473
  684EMI     C212979   0.841   6.116   5.035 -0.1109  0.3461 -1.1552
  684EMI     N312980   0.826   5.995   4.978  0.2716  0.4904  0.2342
  684EMI     C412981   0.705   5.941   5.002 -0.6008 -1.2884 -0.2643
  684EMI     C512982   0.642   6.030   5.081  0.1617  0.2775 -0.1211
  684EMI     H212983   0.928   6.177   5.016 -0.4941 -0.2963 -1.6576
  684EMI     H412984   0.679   5.844   4.969 -0.8723 -0.5308 -1.7718
  684EMI     H512985   0.544   6.017   5.132  2.4769  0.8339 -0.6690
  684EMI    C1'12986   0.920   5.924   4.892 -0.6414  0.0682  0.0560
  684EMI    H1'12987   1.029   5.947   4.921 -0.0308  1.2993  0.1386
  684EMI    H1'12988   0.914   5.812   4.902  0.8448 -2.1213  0.4204
  684EMI    H1'12989   0.909   5.941   4.782  0.7394  1.9754 -0.9564
  684EMI    C1"12990   0.668   6.258   5.182 -0.0991 -0.6494 -1.0020
  684EMI    H1"12991   0.755   6.317   5.223 -0.5502  0.6523 -0.4916
  684EMI    H1"12992   0.610   6.227   5.270  1.5318  2.6209 -2.3478
  684EMI    C2"12993   0.589   6.340   5.091  0.1126 -0.0365  0.0599
  684EMI    H2"12994   0.539   6.421   5.138 -0.3110  2.6266  0.1908
  684EMI    H2"12995   0.664   6.371   5.016  0.1268 -2.3581  1.5131
  684EMI    H2"12996   0.512   6.280   5.038  0.4173  1.4274 -0.1268
  685EMI     N112997   2.322   3.449   4.987 -0.0370 -0.2702  0.2178
  685EMI     C212998   2.204   3.392   5.026  0.1627 -0.5016 -0.1774
  685EMI     N312999   2.098   3.463   4.988 -0.2232  0.4651 -0.0396
  685EMI     C413000   2.146   3.573   4.927 -0.6825 -0.3508  0.5108
  685EMI     C513001   2.283   3.568   4.934  0.1984 -0.4039  0.4182
  685EMI     H213002   2.192   3.289   5.062  1.5108 -1.4026 -0.1750
  685EMI     H413003   2.081   3.647   4.874  0.9777 -0.6235  0.8882
  685EMI     H513004   2.353   3.644   4.886 -0.3227  2.2430  1.9634
  685EMI    C1'13005   1.953   3.446   5.002 -0.4449  0.4459  0.7719
  685EMI    H1'13006   1.904   3.527   4.947  0.3243  0.3086 -0.1614
  685EMI    H1'13007   1.931   3.340   4.980  3.3019 -0.7863  0.1361
  685EMI    H1'13008   1.923   3.447   5.103  0.3429 -2.2261  3.2861
  685EMI    C1"13009   2.468   3.400   4.987 -0.6224 -0.1915 -0.5271
  685EMI    H1"13010   2.467   3.297   4.993 -0.0722 -0.1971  1.7305
  685EMI    H1"13011   2.515   3.430   5.086  0.1573 -0.1229 -0.4261
  685EMI    C2"13012   2.552   3.438   4.872 -0.3647 -0.0649  0.1740
  685EMI    H2"13013   2.628   3.367   4.863  2.2368  2.2233 -1.8177
  685EMI    H2"13014   2.495   3.432   4.780  0.5273 -3.0890 -1.5531
  685EMI    H2"13015   2.591   3.536   4.880 -2.9472 -1.5603 -1.3253
  686EMI     N113016   0.879   6.218   0.604  0.7577 -0.1343  0.4350
  686EMI     C213017   0.787   6.131   0.554  0.7066 -0.0300 -0.2455
  686EMI     N313018   0.820   6.003   0.574 -0.0912 -0.1575  0.5229
  686EMI     C413019   0.935   6.008   0.647  0.0722  0.0901  0.1684
  686EMI     C513020   0.974   6.139   0.659 -0.3511 -0.2702 -0.0249
  686EMI     H213021   0.696   6.155   0.510 -2.3460  2.0300 -0.6760
  686EMI     H413022   0.984   5.926   0.707  0.5998 -3.0158  1.4176
  686EMI     H513023   1.060   6.163   0.718  0.3915 -0.2511 -1.1139
  686EMI    C1'13024   0.742   5.889   0.558  0.3474  0.2822  0.3217
  686EMI    H1'13025   0.761   5.822   0.644 -2.5341  2.4697 -1.9872
  686EMI    H1'13026   0.640   5.921   0.577 -2.4146  1.3128  0.6802
  686EMI    H1'13027   0.758   5.848   0.460  2.2895 -1.1951  2.1063
  686EMI    C1"13028   0.872   6.368   0.617  0.3846 -0.0829 -0.1681
  686EMI    H1"13029   0.811   6.407   0.538 -0.9051  1.1807 -0.1608
  686EMI    H1"13030   0.973   6.402   0.616  0.7483  1.3401  1.8946
  686EMI    C2"13031   0.801   6.397   0.751 -0.4329  0.3798  0.8439
  686EMI    H2"13032   0.708   6.354   0.754  0.6729  1.0873 -0.9070
  686EMI    H2"13033   0.853   6.345   0.830 -2.1762 -0.5087  0.5299
  686EMI    H2"13034   0.794   6.496   0.775 -1.2097 -1.7860  0.8099
  687EMI     N113035   6.113   2.833   0.143 -0.0218 -0.0615  0.1337
  687EMI     C213036   6.172   2.748   0.229 -0.2201 -0.7951 -0.0271
  687EMI     N313037   6.216   2.810   0.338 -0.0048 -0.2234 -0.7554
  687EMI     C413038   6.199   2.942   0.316 -0.0676  0.4109 -0.3694
  687EMI     C513039   6.135   2.960   0.204  0.2621 -0.5985 -0.0465
  687EMI     H213040   6.187   2.640   0.208 -0.4491  0.8438 -0.2095
  687EMI     H413041   6.233   3.019   0.377  1.1590 -0.6313  1.0988
  687EMI     H513042   6.101   3.055   0.162  0.1315 -2.2282 -1.2733
  687EMI    C1'13043   6.272   2.755   0.458  0.2358 -0.5452 -0.2210
  687EMI    H1'13044   6.203   2.681   0.497  0.3300 -0.9058  4.1702
  687EMI    H1'13045   6.360   2.703   0.426 -1.9097  3.2271 -0.7689
  687EMI    H1'13046   6.302   2.830   0.530 -0.3894 -0.6174  0.1758
  687EMI    C1"13047   6.070   2.823   0.002  0.0770 -0.3478 -0.2005
  687EMI    H1"13048   6.135   2.771  -0.068 -1.1198  1.6468 -0.5683
  687EMI    H1"13049   6.064   2.924  -0.036 -1.5984  0.9580 -0.6008
  687EMI    C2"13050   5.931   2.764  -0.018  0.0508 -0.0292  0.6391
  687EMI    H2"13051   5.858   2.826   0.031  0.9069 -1.7770 -0.1279
  687EMI    H2"13052   5.911   2.765  -0.123 -0.9400 -0.7986 -0.5133
  687EMI    H2"13053   5.928   2.665   0.019 -0.1012 -2.0081 -1.5936
  688EMI     N113054   1.585   4.104   2.149  0.0936 -0.0715  0.0692
  688EMI     C213055   1.559   3.983   2.202 -0.0950 -0.4594 -0.3762
  688EMI     N313056   1.570   3.978   2.339  0.0768  0.6381 -0.2702
  688EMI     C413057   1.594   4.109   2.372 -0.2460  0.6483  0.5283
  688EMI     C513058   1.604   4.189   2.260  0.2816  0.2833  0.0589
  688EMI     H213059   1.512   3.900   2.147 -2.7918 -2.0955  1.9894
  688EMI     H413060   1.596   4.152   2.470 -0.0955  0.1557 -0.4626
  688EMI     H513061   1.630   4.295   2.269 -2.9645 -1.1677 -0.0200
  688EMI    C1'13062   1.559   3.876   2.444 -0.5371  0.0638  0.0693
  688EMI    H1'13063   1.531   3.784   2.406  1.5644  0.7742  2.2305
  688EMI    H1'13064   1.651   3.874   2.503 -1.6767 -2.6604 -0.6775
  688EMI    H1'13065   1.480   3.914   2.506  2.4248  1.7053  0.9829
  688EMI    C1"13066   1.581   4.140   2.008  0.0108 -0.0476  0.5776
  688EMI    H1"13067   1.490   4.210   1.997  1.9934 -1.4752 -2.7502
  688EMI    H1"13068   1.553   4.057   1.950  1.3430  0.0806  0.8813
  688EMI    C2"13069   1.715   4.194   1.956  0.1210 -1.2151  0.1847
  688EMI    H2"13070   1.713   4.219   1.854  0.6968  0.9823  0.5861
  688EMI    H2"13071   1.741   4.288   2.011 -0.4687  0.1414 -0.5606
  688EMI    H2"13072   1.787   4.112   1.983 -1.4521  1.3328  3.2446
  689EMI     N113073   1.628   1.251   3.432 -0.4569  0.1282  0.3784
  689EMI     C213074   1.628   1.129   3.381 -0.0435  0.0920 -0.5325
  689EMI     N313075   1.622   1.141   3.247 -0.5422  0.9746  0.0360
  689EMI     C413076   1.627   1.274   3.219  0.0380 -0.0203 -0.3657
  689EMI     C513077   1.619   1.347   3.333  0.4245  0.4418  0.1237
  689EMI     H213078   1.631   1.036   3.434  0.7291  0.1520 -1.4757
  689EMI     H413079   1.644   1.318   3.123  0.7656 -1.7360  2.4028
  689EMI     H513080   1.625   1.452   3.350  0.4357  3.2269 -0.5906
  689EMI    C1'13081   1.635   1.045   3.142  0.7374 -0.0285 -0.0443
  689EMI    H1'13082   1.731   0.996   3.133 -0.2633 -1.8352 -0.9628
  689EMI    H1'13083   1.548   0.972   3.159  0.9651  0.9666 -0.2005
  689EMI    H1'13084   1.608   1.086   3.048  1.3271  1.1132  1.8084
  689EMI    C1"13085   1.630   1.295   3.569 -0.8387  0.4012 -1.2402
  689EMI    H1"13086   1.603   1.402   3.576  0.7542  0.4604 -0.1800
  689EMI    H1"13087   1.726   1.297   3.616 -1.1936  3.2480  0.6515
  689EMI    C2"13088   1.533   1.215   3.662  1.3776 -0.1942  0.4274
  689EMI    H2"13089   1.433   1.196   3.618  0.3851 -2.9027 -0.3072
  689EMI    H2"13090   1.580   1.125   3.683 -0.1951  0.7773 -0.6485
  689EMI    H2"13091   1.517   1.270   3.758 -1.1761 -1.8570 -0.9136
  690EMI     N113092   4.113   4.129   4.154 -0.4731 -0.0452 -0.0386
  690EMI     C213093   4.152   4.002   4.146  0.0178 -0.1828  0.2236
  690EMI     N313094   4.065   3.929   4.072  0.3674 -0.1881 -0.6459
  690EMI     C413095   3.966   4.016   4.030 -0.0836  0.4165  0.0693
  690EMI     C513096   3.990   4.139   4.088 -0.3732  0.1026 -0.8411
  690EMI     H213097   4.238   3.961   4.197 -2.6374 -2.5847 -0.8948
  690EMI     H413098   3.880   3.982   3.973 -0.6563 -0.4193  0.7330
  690EMI     H513099   3.937   4.238   4.089  1.0853  1.4045  0.5034
  690EMI    C1'13100   4.066   3.787   4.052  0.4049  0.0706 -0.2759
  690EMI    H1'13101   4.153   3.741   4.109 -2.6025 -2.0933  0.0144
  690EMI    H1'13102   3.987   3.736   4.108 -0.1981 -1.2214  1.1918
  690EMI    H1'13103   4.053   3.759   3.944  1.0516  1.3421 -0.7581
  690EMI    C1"13104   4.163   4.238   4.239  0.4310  0.7258  0.2023
  690EMI    H1"13105   4.156   4.337   4.194  2.4997 -0.9457 -0.7695
  690EMI    H1"13106   4.259   4.207   4.277  0.8082  1.7699  0.1169
  690EMI    C2"13107   4.077   4.243   4.365  0.4359  0.2977 -0.1416
  690EMI    H2"13108   3.970   4.267   4.334  0.1892  0.1951 -0.6421
  690EMI    H2"13109   4.076   4.150   4.428  3.2056  0.6693  0.1234
  690EMI    H2"13110   4.112   4.321   4.434  2.0316 -0.4138 -0.6529
  691EMI     N113111   6.538   3.626   4.782  0.3499  0.6771  0.1123
  691EMI     C213112   6.449   3.628   4.883 -0.4105  0.4160 -0.1382
  691EMI     N313113   6.340   3.698   4.847  0.3952  0.7151 -0.2494
  691EMI     C413114   6.350   3.730   4.714 -0.4548 -0.6850 -0.5450
  691EMI     C513115   6.473   3.680   4.672 -0.8766  0.4810  0.2249
  691EMI     H213116   6.453   3.585   4.985 -1.5649 -2.0033 -0.2691
  691EMI     H413117   6.280   3.782   4.656  2.0845 -1.2636 -1.4203
  691EMI     H513118   6.519   3.680   4.570 -0.2178  2.0917 -1.2712
  691EMI    C1'13119   6.215   3.714   4.922 -0.0023 -0.6025 -0.0858
  691EMI    H1'13120   6.237   3.697   5.030 -0.2448 -1.7277  2.4326
  691EMI    H1'13121   6.162   3.814   4.903 -0.5325  1.6482 -1.5819
  691EMI    H1'13122   6.151   3.632   4.887 -0.4463 -0.7929 -0.0328
  691EMI    C1"13123   6.678   3.573   4.776 -0.3338  0.4888  0.0478
  691EMI    H1"13124   6.747   3.656   4.797 -0.0221 -0.9046 -1.1521
  691EMI    H1"13125   6.702   3.548   4.674  1.2371  1.5363  0.3993
  691EMI    C2"13126   6.711   3.457   4.873 -0.2425 -0.0029  0.4655
  691EMI    H2"13127   6.679   3.475   4.976  2.3025  1.8779 -1.2504
  691EMI    H2"13128   6.659   3.369   4.841  1.1411  0.2851  0.0424
  691EMI    H2"13129   6.818   3.449   4.888 -0.3849 -0.1292 -1.2219
  692EMI     N113130   0.736   2.829   2.480  0.1303  0.5698 -0.3639
  692EMI     C213131   0.796   2.916   2.398  0.0736 -0.7124 -0.3923
  692EMI     N313132   0.708   3.015   2.374 -0.6288 -0.1070 -0.0551
  692EMI     C413133   0.590   2.994   2.439  0.1997  0.1587  0.0745
  692EMI     C513134   0.608   2.877   2.502 -0.2181 -0.2825  0.1108
  692EMI     H213135   0.896   2.903   2.355  0.2533  1.4451  0.2678
  692EMI     H413136   0.492   3.051   2.444 -0.6906  0.0015  0.9984
  692EMI     H513137   0.533   2.832   2.561 -1.2884  0.7819  1.1728
  692EMI    C1'13138   0.729   3.142   2.310  0.1243 -0.4451  0.2937
  692EMI    H1'13139   0.801   3.121   2.228  0.9884 -2.0498 -1.6988
  692EMI    H1'13140   0.635   3.169   2.263 -1.3540  2.5163  2.9079
  692EMI    H1'13141   0.774   3.214   2.381  2.2515  0.3217  1.0195
  692EMI    C1"13142   0.772   2.695   2.537  0.0961 -0.3893 -0.4352
  692EMI    H1"13143   0.840   2.655   2.457 -1.4286  1.1836 -0.4426
  692EMI    H1"13144   0.693   2.622   2.533 -0.8089 -1.9778  1.7451
  692EMI    C2"13145   0.839   2.703   2.679  0.1827  0.2924  0.2592
  692EMI    H2"13146   0.943   2.737   2.662  0.5622  0.6726 -0.7232
  692EMI    H2"13147   0.774   2.773   2.742 -1.9103  0.4268  1.1514
  692EMI    H2"13148   0.842   2.606   2.717 -2.5497  1.4377  0.1269
  693EMI     N113149   2.270   6.303   6.458 -0.2344  0.3198 -0.1835
  693EMI     C213150   2.235   6.190   6.398 -0.2612  0.3011  0.5913
  693EMI     N313151   2.203   6.211   6.270  0.5449  0.8238  0.0914
  693EMI     C413152   2.224   6.340   6.250 -0.1814  0.0315 -0.4188
  693EMI     C513153   2.261   6.403   6.363  0.3570  0.2079 -0.0148
  693EMI     H213154   2.243   6.092   6.444  0.4748 -1.3167  0.4292
  693EMI     H413155   2.212   6.397   6.167 -0.9542  2.6036  3.5962
  693EMI     H513156   2.285   6.510   6.375  2.3535  1.6925  0.7908
  693EMI    C1'13157   2.176   6.120   6.163  0.0889 -0.4581  0.4231
  693EMI    H1'13158   2.153   6.175   6.069 -1.0858  0.4883 -0.6849
  693EMI    H1'13159   2.264   6.058   6.161 -1.6166  0.6760  0.1845
  693EMI    H1'13160   2.094   6.049   6.183 -1.2376 -0.3125  0.1119
  693EMI    C1"13161   2.315   6.333   6.598  0.3801  0.2809  0.7197
  693EMI    H1"13162   2.410   6.367   6.604  1.3171 -1.2433 -1.0750
  693EMI    H1"13163   2.320   6.239   6.655  0.7392 -1.5544 -0.0215
  693EMI    C2"13164   2.228   6.437   6.662  0.2839 -0.3617 -0.0114
  693EMI    H2"13165   2.268   6.481   6.755 -1.3203  0.4529 -3.7067
  693EMI    H2"13166   2.213   6.532   6.610  2.7411  0.4868  1.9504
  693EMI    H2"13167   2.131   6.392   6.695  0.2696 -1.1675  1.7379
  694EMI     N113168   1.663   0.689   5.786  0.3511  0.2729 -0.2251
  694EMI     C213169   1.667   0.637   5.908 -0.1593  0.3247  0.2612
  694EMI     N313170   1.640   0.511   5.895  0.7055  0.3152 -0.0051
  694EMI     C413171   1.622   0.467   5.767  0.5663 -0.1616  0.4561
  694EMI     C513172   1.643   0.579   5.699  0.7576 -0.7551 -0.3566
  694EMI     H213173   1.694   0.685   6.000 -1.0619 -0.7544 -1.1766
  694EMI     H413174   1.615   0.363   5.729 -0.5621 -1.3523 -1.0871
  694EMI     H513175   1.640   0.593   5.591  4.0354 -0.1061  2.2439
  694EMI    C1'13176   1.643   0.407   6.000 -0.2770 -0.4335 -0.0895
  694EMI    H1'13177   1.642   0.459   6.094 -0.5643 -0.9951  0.3481
  694EMI    H1'13178   1.554   0.343   6.007 -2.0766 -1.9617  0.0703
  694EMI    H1'13179   1.736   0.346   6.008  1.6566  0.1731  0.5996
  694EMI    C1"13180   1.682   0.829   5.747  0.2016 -0.3172 -0.0015
  694EMI    H1"13181   1.710   0.834   5.642  1.6459  0.0496 -2.3286
  694EMI    H1"13182   1.758   0.875   5.808  0.8327 -1.2685  2.2492
  694EMI    C2"13183   1.552   0.903   5.756 -0.0041 -0.5497 -0.2847
  694EMI    H2"13184   1.478   0.874   5.681 -1.0246  0.7071  0.9971
  694EMI    H2"13185   1.516   0.892   5.854 -0.5224 -0.3705 -1.8789
  694EMI    H2"13186   1.571   1.001   5.725  2.4578 -4.3672  1.6332
  695EMI     N113187   6.350   5.708   0.839  0.3499 -0.0206 -0.3282
  695EMI     C213188   6.420   5.808   0.901 -0.3258  0.2139  0.1323
  695EMI     N313189   6.363   5.849   1.014  0.3464  0.7878  0.2561
  695EMI     C413190   6.256   5.768   1.031  0.3336 -0.3310 -0.2314
  695EMI     C513191   6.245   5.683   0.924 -0.1628  0.2364 -0.4731
  695EMI     H213192   6.510   5.847   0.858 -2.7171 -2.8259  1.6433
  695EMI     H413193   6.192   5.779   1.118 -0.4404  0.5915  1.4814
  695EMI     H513194   6.162   5.613   0.917 -0.1027  0.7224 -1.4577
  695EMI    C1'13195   6.388   5.959   1.105  0.6241 -0.1358  0.4881
  695EMI    H1'13196   6.337   5.918   1.195  0.1886 -2.1863 -1.0603
  695EMI    H1'13197   6.502   5.966   1.116  2.2182  0.7929 -1.1046
  695EMI    H1'13198   6.349   6.048   1.064 -0.7949 -1.1129 -0.4089
  695EMI    C1"13199   6.366   5.641   0.708 -0.2516  0.1655 -0.1367
  695EMI    H1"13200   6.306   5.688   0.629  0.9104 -0.0341 -1.0996
  695EMI    H1"13201   6.350   5.535   0.712 -0.3144 -0.3705 -1.0370
  695EMI    C2"13202   6.513   5.645   0.666 -0.2934  0.0562  0.4083
  695EMI    H2"13203   6.537   5.571   0.585 -0.8554  2.1535  2.7385
  695EMI    H2"13204   6.552   5.741   0.634  0.1372  0.8555  0.0936
  695EMI    H2"13205   6.572   5.615   0.755  1.8166 -0.3623 -2.4419
  696EMI     N113206   6.137   0.557   0.375  0.1604 -0.4393  0.5411
  696EMI     C213207   6.075   0.608   0.266  0.2368  0.7344  0.3739
  696EMI     N313208   6.149   0.574   0.157 -0.1029  0.2202  0.3577
  696EMI     C413209   6.268   0.516   0.195  0.3640  0.1340 -0.0031
  696EMI     C513210   6.259   0.506   0.337 -0.1486  0.5629  0.3684
  696EMI     H213211   5.973   0.637   0.262 -0.9180 -0.4872  0.7218
  696EMI     H413212   6.353   0.499   0.130 -2.6524 -1.6849  0.4091
  696EMI     H513213   6.343   0.477   0.403  0.3074 -1.2844 -2.6021
  696EMI    C1'13214   6.149   0.609   0.010  0.4183 -0.0202 -0.3469
  696EMI    H1'13215   6.205   0.548  -0.059  0.9318  2.2019 -2.1886
  696EMI    H1'13216   6.042   0.612  -0.011  0.1901  2.5654 -0.8769
  696EMI    H1'13217   6.180   0.709  -0.008  2.0786 -1.2991  0.4933
  696EMI    C1"13218   6.107   0.573   0.519 -0.0032 -0.4834  0.0883
  696EMI    H1"13219   6.164   0.497   0.574  0.7790 -3.2232 -0.2817
  696EMI    H1"13220   5.999   0.569   0.538 -0.9135  1.6502 -1.4176
  696EMI    C2"13221   6.163   0.709   0.550 -0.3936 -0.6132 -0.1826
  696EMI    H2"13222   6.164   0.726   0.660 -0.3478  0.1305  0.0816
  696EMI    H2"13223   6.268   0.722   0.524 -1.1752  0.6327  1.1724
  696EMI    H2"13224   6.104   0.783   0.505  1.6570 -0.1111  2.0951
  697EMI     N113225   4.981   2.439   4.805 -0.3289 -0.0834  0.3675
  697EMI     C213226   5.011   2.524   4.908 -0.8084  1.0315  0.0445
  697EMI     N313227   5.140   2.520   4.934 -0.3450  0.6058 -0.2566
  697EMI     C413228   5.197   2.429   4.848  1.3347  0.2990 -0.0577
  697EMI     C513229   5.100   2.377   4.771  0.1649  0.1145  0.2559
  697EMI     H213230   4.940   2.565   4.980 -0.1367  2.2260  0.1193
  697EMI     H413231   5.303   2.404   4.848  0.3671  2.8699 -1.9949
  697EMI     H513232   5.129   2.308   4.695  0.8859 -1.8027 -0.3528
  697EMI    C1'13233   5.205   2.593   5.048  0.4130  0.6473 -0.0408
  697EMI    H1'13234   5.135   2.595   5.131  1.6458  0.2037 -1.4728
  697EMI    H1'13235   5.297   2.544   5.086 -0.3058 -0.6693 -0.1529
  697EMI    H1'13236   5.225   2.695   5.005 -1.3958 -0.7538 -0.9517
  697EMI    C1"13237   4.856   2.380   4.762  0.5896  0.8525 -0.2440
  697EMI    H1"13238   4.871   2.308   4.684  1.6604 -0.4305 -1.1418
  697EMI    H1"13239   4.799   2.454   4.711  0.9662 -0.2586 -0.2704
  697EMI    C2"13240   4.777   2.323   4.884 -0.1488 -0.5402 -0.2273
  697EMI    H2"13241   4.836   2.239   4.934 -2.6033 -0.8125  2.4044
  697EMI    H2"13242   4.769   2.408   4.955 -2.0280 -1.4276 -0.8477
  697EMI    H2"13243   4.680   2.298   4.842  2.5201 -0.1671  1.3030
  698EMI     N113244   1.863   2.358   5.232 -0.0342  0.4030  0.0996
  698EMI     C213245   1.900   2.243   5.299  0.0316 -0.0702  0.9396
  698EMI     N313246   1.823   2.140   5.256  0.6193 -0.1370 -0.4165
  698EMI     C413247   1.736   2.188   5.156 -1.3367  0.2360 -0.1272
  698EMI     C513248   1.761   2.319   5.146  0.4713 -0.8123  0.8366
  698EMI     H213249   1.968   2.242   5.380 -3.0555  0.0388  0.5325
  698EMI     H413250   1.663   2.126   5.108 -0.8488 -1.3404 -0.8670
  698EMI     H513251   1.712   2.389   5.074 -1.6497  1.8378 -2.0180
  698EMI    C1'13252   1.825   1.999   5.299  0.5640  0.5582 -0.3860
  698EMI    H1'13253   1.801   1.991   5.407  0.8575 -0.6652  1.4128
  698EMI    H1'13254   1.748   1.952   5.231 -3.1727  0.0573 -1.6589
  698EMI    H1'13255   1.922   1.954   5.287 -0.7242  0.7539 -0.9430
  698EMI    C1"13256   1.910   2.501   5.235  0.5394 -0.1831  0.0639
  698EMI    H1"13257   1.843   2.567   5.188  2.0210  0.5123 -1.3059
  698EMI    H1"13258   2.005   2.517   5.176 -0.2074  3.7349  0.1281
  698EMI    C2"13259   1.923   2.550   5.378  0.3072  0.2554  0.0650
  698EMI    H2"13260   1.840   2.517   5.435  2.9345  0.6382 -0.9109
  698EMI    H2"13261   2.010   2.499   5.413  1.1587 -2.2296 -2.9981
  698EMI    H2"13262   1.924   2.655   5.390  0.8669 -2.1370 -0.6536
  699EMI     N113263   4.068   1.971   0.329  0.3987 -1.1159 -0.4147
  699EMI     C213264   4.101   2.006   0.457  0.2988  0.6151  0.5080
  699EMI     N313265   3.990   2.025   0.531  0.0882  0.2173  0.3459
  699EMI     C413266   3.878   1.999   0.447  0.2939  0.5650  0.4841
  699EMI     C513267   3.925   1.967   0.324  0.2197  0.1627  0.8359
  699EMI     H213268   4.200   2.015   0.492  1.7179 -0.5336 -0.0760
  699EMI     H413269   3.772   2.016   0.475  2.7743 -0.5498 -1.6413
  699EMI     H513270   3.861   1.943   0.243 -0.4256 -1.9889  1.4432
  699EMI    C1'13271   3.971   2.044   0.676  0.1584 -0.3402 -1.0203
  699EMI    H1'13272   4.004   1.954   0.729 -2.0442  2.4321 -0.9754
  699EMI    H1'13273   4.028   2.132   0.705  1.6648  0.3440  0.2433
  699EMI    H1'13274   3.862   2.046   0.690  2.9856 -0.9796  3.1217
  699EMI    C1"13275   4.157   1.955   0.210  0.2957 -0.3843 -0.2921
  699EMI    H1"13276   4.254   1.921   0.258 -0.3921  4.1913  1.4761
  699EMI    H1"13277   4.164   2.049   0.150 -2.1353 -0.0102  1.3148
  699EMI    C2"13278   4.110   1.840   0.120 -0.0405  0.6856 -0.3580
  699EMI    H2"13279   4.020   1.864   0.074  2.4535  0.2740  0.7711
  699EMI    H2"13280   4.192   1.824   0.051  0.4456  1.0300 -2.9279
  699EMI    H2"13281   4.104   1.752   0.182 -0.6389 -0.0288  0.4493
  700EMI     N113282   3.004   3.846   0.998 -0.3637  0.1494 -0.1399
  700EMI     C213283   2.879   3.884   1.035 -0.4584 -0.2337 -0.6940
  700EMI     N313284   2.865   3.869   1.169  0.2740 -0.4867 -0.4840
  700EMI     C413285   2.982   3.822   1.215 -1.0035 -0.0563 -0.5888
  700EMI     C513286   3.073   3.802   1.112  0.5925  0.1658  0.2287
  700EMI     H213287   2.805   3.926   0.961 -2.4581 -2.9385 -4.0730
  700EMI     H413288   2.999   3.789   1.319 -2.1420 -1.4830  0.6296
  700EMI     H513289   3.173   3.774   1.106 -1.1155 -0.3701  0.1270
  700EMI    C1'13290   2.750   3.913   1.258  0.3473 -0.3283 -0.9567
  700EMI    H1'13291   2.695   3.998   1.218  0.5120  0.2507 -0.7627
  700EMI    H1'13292   2.687   3.827   1.281 -0.3319 -0.1046 -1.7461
  700EMI    H1'13293   2.790   3.963   1.352  0.9940  1.1479  0.7939
  700EMI    C1"13294   3.072   3.866   0.866 -0.3137 -0.1542 -0.0519
  700EMI    H1"13295   2.996   3.864   0.784 -2.1884 -1.2310  0.0972
  700EMI    H1"13296   3.152   3.788   0.847  0.8766  0.3511 -1.4774
  700EMI    C2"13297   3.164   3.998   0.864 -0.9224  0.1878  0.3573
  700EMI    H2"13298   3.251   3.980   0.931 -0.4850 -0.3074 -2.9434
  700EMI    H2"13299   3.198   4.018   0.759  1.3694  1.7443 -0.4918
  700EMI    H2"13300   3.105   4.085   0.899 -1.9622  1.8834  1.4396
  701EMI     N113301   1.672   2.139   4.700  0.1713  0.2761  0.2329
  701EMI     C213302   1.551   2.193   4.736  0.2797 -0.0657  0.2276
  701EMI     N313303   1.448   2.125   4.678 -0.6360  0.3757 -0.6650
  701EMI     C413304   1.505   2.025   4.604  0.8477  0.4146 -0.7245
  701EMI     C513305   1.642   2.034   4.617 -0.0377 -0.3105  0.3961
  701EMI     H213306   1.532   2.277   4.798  1.1827  2.8520 -2.8953
  701EMI     H413307   1.464   1.940   4.554  0.0240  2.7463  0.4056
  701EMI     H513308   1.725   1.976   4.576 -1.5731 -1.2490  1.5415
  701EMI    C1'13309   1.307   2.147   4.690  0.4296  0.1108 -0.7105
  701EMI    H1'13310   1.273   2.132   4.794 -1.3581 -2.1179  2.3857
  701EMI    H1'13311   1.278   2.245   4.659 -3.0889  0.5000  0.6194
  701EMI    H1'13312   1.249   2.083   4.621 -2.3198  0.2717 -0.7424
  701EMI    C1"13313   1.812   2.172   4.729  0.2705  0.2855  0.7635
  701EMI    H1"13314   1.862   2.086   4.768  1.2420 -2.1395 -0.5399
  701EMI    H1"13315   1.815   2.265   4.796 -0.1279  2.2119 -1.1855
  701EMI    C2"13316   1.879   2.223   4.597  0.2118 -0.1996  0.2336
  701EMI    H2"13317   1.929   2.321   4.622 -0.3175  2.4756  0.8075
  701EMI    H2"13318   1.953   2.145   4.566  3.7217 -0.6951 -1.7675
  701EMI    H2"13319   1.809   2.241   4.519 -0.1128  3.9385 -0.5197
  702EMI     N113320   6.742   6.457   6.297  0.4432  0.0342 -0.5039
  702EMI     C213321   6.694   6.502   6.173  1.0174  0.1222 -0.4950
  702EMI     N313322   6.614   6.607   6.198 -0.0448 -0.4846  0.1895
  702EMI     C413323   6.615   6.628   6.331 -0.3336  0.4034 -0.6312
  702EMI     C513324   6.696   6.538   6.394  0.3651 -0.2154  0.3111
  702EMI     H213325   6.730   6.460   6.074  2.0401 -1.9616 -1.8195
  702EMI     H413326   6.555   6.708   6.378 -1.0448 -0.4698  2.1297
  702EMI     H513327   6.722   6.531   6.495 -1.6604  0.0320  1.3968
  702EMI    C1'13328   6.558   6.706   6.105 -0.5380  0.1939  0.0105
  702EMI    H1'13329   6.594   6.805   6.135  1.0228  1.9385  1.6355
  702EMI    H1'13330   6.618   6.683   6.014  3.5442 -1.7970  0.4150
  702EMI    H1'13331   6.447   6.703   6.095  0.1073  0.7031  0.8665
  702EMI    C1"13332   6.820   6.334   6.338 -0.4314 -0.5303  0.1807
  702EMI    H1"13333   6.830   6.333   6.449 -1.2033  0.7571  1.9568
  702EMI    H1"13334   6.924   6.351   6.301  1.1915  0.2546  1.0455
  702EMI    C2"13335   6.765   6.205   6.289  0.1141  0.5024 -0.0984
  702EMI    H2"13336   6.750   6.198   6.179 -1.8180 -2.6181 -3.0044
  702EMI    H2"13337   6.846   6.142   6.317 -1.0332 -1.1655  0.9218
  702EMI    H2"13338   6.682   6.166   6.345  0.5221 -0.0178 -0.9622
  703EMI     N113339   6.583   1.301   2.021 -0.0780  0.6255  0.0188
  703EMI     C213340   6.500   1.234   2.107 -1.2443  0.5379  0.4181
  703EMI     N313341   6.464   1.312   2.208 -0.7211  0.0701 -0.7516
  703EMI     C413342   6.527   1.434   2.192  0.1196  0.5692  0.5204
  703EMI     C513343   6.596   1.429   2.074 -0.7825 -0.1286 -0.2124
  703EMI     H213344   6.479   1.128   2.107 -2.9881  0.1557  0.2935
  703EMI     H413345   6.522   1.516   2.260 -3.0875  1.2785  0.0008
  703EMI     H513346   6.645   1.516   2.029  1.7389  2.0262 -1.5645
  703EMI    C1'13347   6.357   1.289   2.311 -0.3886  0.1705 -0.6326
  703EMI    H1'13348   6.336   1.181   2.321  1.4634 -2.5147 -0.4440
  703EMI    H1'13349   6.391   1.324   2.406  1.7164 -0.8927 -2.0781
  703EMI    H1'13350   6.263   1.345   2.286  0.5772 -1.0757 -1.2581
  703EMI    C1"13351   6.638   1.262   1.889  0.5276  0.2564  0.5528
  703EMI    H1"13352   6.691   1.167   1.895 -1.5610  0.4651 -0.3252
  703EMI    H1"13353   6.697   1.337   1.838 -0.7307  0.2862 -1.3094
  703EMI    C2"13354   6.514   1.247   1.799  0.5142  0.3157  0.0943
  703EMI    H2"13355   6.443   1.331   1.791  0.7664  1.0582 -0.1005
  703EMI    H2"13356   6.541   1.227   1.694 -2.0804  1.6703 -3.5627
  703EMI    H2"13357   6.460   1.166   1.837  2.0837 -0.6213  1.4628
  704EMI     N113358   5.480   1.911   0.617  0.1590 -0.1836 -0.1230
  704EMI     C213359   5.456   1.846   0.501  0.3428 -0.2628 -0.5191
  704EMI     N313360   5.568   1.792   0.460  0.7065  0.0962  0.2153
  704EMI     C413361   5.673   1.835   0.538  0.4999  0.3941 -0.1459
  704EMI     C513362   5.617   1.906   0.639 -0.3317  0.1319  0.4651
  704EMI     H213363   5.364   1.819   0.453 -0.5546  1.1243 -1.1193
  704EMI     H413364   5.775   1.804   0.511  1.5492  1.3992 -0.1652
  704EMI     H513365   5.677   1.952   0.718 -2.2678  2.7782  0.5268
  704EMI    C1'13366   5.599   1.698   0.351 -0.3568  0.1431 -0.0177
  704EMI    H1'13367   5.550   1.729   0.256  2.1619 -1.8188 -0.1452
  704EMI    H1'13368   5.707   1.686   0.331  1.1627  1.4308 -0.5553
  704EMI    H1'13369   5.543   1.611   0.380  0.1937 -0.3559  0.2261
  704EMI    C1"13370   5.386   1.968   0.716 -0.2801  0.2768  0.6515
  704EMI    H1"13371   5.278   1.936   0.706  1.0080  1.4409  3.1549
  704EMI    H1"13372   5.397   2.080   0.718  0.5131  0.2907 -1.9057
  704EMI    C2"13373   5.402   1.924   0.858  0.0622 -1.0615 -0.3104
  704EMI    H2"13374   5.396   1.809   0.869 -0.4107  1.5096  1.2979
  704EMI    H2"13375   5.499   1.959   0.898  2.2934  2.0822 -1.5818
  704EMI    H2"13376   5.320   1.967   0.919 -4.5033  0.6920 -0.0093
  705EMI     N113377   2.101   0.228   4.065 -0.4494  0.4600 -0.5369
  705EMI     C213378   2.018   0.145   3.993  0.5756 -0.8278  0.1904
  705EMI     N313379   1.889   0.168   4.023  0.2176 -0.4554 -0.0935
  705EMI     C413380   1.892   0.263   4.127  0.1613 -0.4571 -0.3545
  705EMI     C513381   2.020   0.303   4.143  0.0164 -0.0098  0.0156
  705EMI     H213382   2.050   0.066   3.931 -1.7406 -1.4598 -0.8205
  705EMI     H413383   1.801   0.301   4.175 -0.9561  1.4920  1.3601
  705EMI     H513384   2.049   0.390   4.206 -0.3906 -0.5531  2.3314
  705EMI    C1'13385   1.772   0.095   3.991  0.1801  0.0373 -0.1706
  705EMI    H1'13386   1.799  -0.010   3.992  1.4421 -2.9631  1.5592
  705EMI    H1'13387   1.699   0.102   4.068  0.9375 -0.0666 -0.5265
  705EMI    H1'13388   1.722   0.131   3.902 -0.2929 -1.4772 -1.4448
  705EMI    C1"13389   2.251   0.246   4.061 -0.2698 -1.0439  0.6175
  705EMI    H1"13390   2.280   0.165   3.989 -1.3672  3.2969  3.4884
  705EMI    H1"13391   2.297   0.220   4.155  1.8653  1.8487  0.1255
  705EMI    C2"13392   2.300   0.384   4.015 -0.2661 -0.4594 -0.2360
  705EMI    H2"13393   2.289   0.385   3.908 -0.7830 -0.9391  0.0039
  705EMI    H2"13394   2.250   0.459   4.072 -1.0057 -0.2136  1.8178
  705EMI    H2"13395   2.403   0.391   4.036  0.5052  0.7136 -0.9770
  706EMI     N113396   5.595   5.685   6.166  0.0132  0.2164 -0.3548
  706EMI     C213397   5.567   5.807   6.213 -0.3441  0.0879  0.4891
  706EMI     N313398   5.643   5.901   6.155 -0.2685  0.6587  0.3853
  706EMI     C413399   5.723   5.834   6.069 -0.6036 -0.5456 -0.0880
  706EMI     C513400   5.687   5.704   6.072 -0.1703  0.4499 -0.4629
  706EMI     H213401   5.493   5.829   6.291 -2.9006 -0.4003  1.4710
  706EMI     H413402   5.798   5.876   6.001  0.0801  0.4054 -0.9882
  706EMI     H513403   5.740   5.636   6.006  0.3320  0.3150 -1.8562
  706EMI    C1'13404   5.643   6.045   6.162  0.0301 -0.1463  0.8804
  706EMI    H1'13405   5.541   6.073   6.160 -1.7978 -0.3420 -1.2812
  706EMI    H1'13406   5.689   6.087   6.251  1.8653  0.5345  1.6751
  706EMI    H1'13407   5.704   6.074   6.072 -0.1567  1.7798 -0.1505
  706EMI    C1"13408   5.530   5.556   6.202  0.4521  0.2038  0.3305
  706EMI    H1"13409   5.525   5.474   6.124  0.4807 -1.9794  0.3196
  706EMI    H1"13410   5.425   5.576   6.235  1.3594  0.9332  1.1592
  706EMI    C2"13411   5.603   5.481   6.325  0.4132 -0.1600 -0.4025
  706EMI    H2"13412   5.618   5.544   6.410  1.1986 -0.2127 -0.5840
  706EMI    H2"13413   5.545   5.402   6.356  0.0013 -1.2744 -1.0129
  706EMI    H2"13414   5.703   5.450   6.295 -3.2726 -1.2607 -2.6928
  707EMI     N113415   0.049   1.189   3.497  0.2237  0.4104  0.5503
  707EMI     C213416   0.084   1.123   3.607  0.8019 -0.4206  0.6758
  707EMI     N313417   0.219   1.116   3.615  0.8850  0.0098  0.1359
  707EMI     C413418   0.265   1.176   3.503 -0.2290 -0.6264  0.0123
  707EMI     C513419   0.162   1.217   3.424  0.2106 -0.5328 -0.5161
  707EMI     H213420   0.004   1.085   3.675 -0.5325  1.5437  2.1740
  707EMI     H413421   0.371   1.193   3.485 -1.4278  1.2682  3.4347
  707EMI     H513422   0.168   1.278   3.332 -0.1876  0.4511 -0.3466
  707EMI    C1'13423   0.294   1.070   3.733  0.5587  0.7825  1.0841
  707EMI    H1'13424   0.235   1.014   3.805  2.9460  0.1742  2.0397
  707EMI    H1'13425   0.376   1.011   3.699  0.9058  0.4758 -0.2131
  707EMI    H1'13426   0.326   1.158   3.784 -2.2943  1.4958  0.4914
  707EMI    C1"13427  -0.090   1.226   3.461 -0.0805 -0.9331 -0.1079
  707EMI    H1"13428  -0.095   1.308   3.390  2.0681  1.2653  0.5645
  707EMI    H1"13429  -0.133   1.255   3.550 -1.2197 -3.2876 -2.1486
  707EMI    C2"13430  -0.157   1.098   3.403 -0.2006 -0.0277  0.6675
  707EMI    H2"13431  -0.262   1.109   3.403 -1.0002  1.5157 -0.2976
  707EMI    H2"13432  -0.133   1.080   3.295 -1.4048 -0.5839  2.4687
  707EMI    H2"13433  -0.120   1.006   3.445  2.7097  0.5302 -0.2764
  708EMI     N113434   4.314   0.589   1.074 -0.4157 -0.0408 -0.2399
  708EMI     C213435   4.428   0.589   0.999  0.5576 -0.4412  0.1865
  708EMI     N313436   4.417   0.492   0.904 -0.1046  0.3471 -0.4165
  708EMI     C413437   4.297   0.427   0.921  0.3679 -0.2335 -0.2512
  708EMI     C513438   4.233   0.492   1.022 -0.6980  0.0858  0.0591
  708EMI     H213439   4.516   0.648   1.013  1.6785  0.2120 -3.0630
  708EMI     H413440   4.258   0.361   0.851  0.6481  3.3586  0.7865
  708EMI     H513441   4.123   0.471   1.053 -1.1254  0.8093 -0.9460
  708EMI    C1'13442   4.500   0.465   0.789 -0.0892  0.2447 -0.3718
  708EMI    H1'13443   4.456   0.490   0.695 -0.0293  1.4857 -1.2507
  708EMI    H1'13444   4.585   0.532   0.800 -0.3815  2.2186 -0.9215
  708EMI    H1'13445   4.539   0.363   0.806 -3.5272 -2.0238  2.9679
  708EMI    C1"13446   4.281   0.667   1.198 -0.0242  0.2893 -0.2753
  708EMI    H1"13447   4.361   0.650   1.273  4.1741 -1.6540 -1.1114
  708EMI    H1"13448   4.189   0.625   1.234 -0.1255 -0.0623  1.5159
  708EMI    C2"13449   4.263   0.813   1.165  0.4069  0.2344 -0.4166
  708EMI    H2"13450   4.226   0.852   1.261 -0.9573 -1.1398 -0.8225
  708EMI    H2"13451   4.361   0.854   1.142 -0.4168 -2.3704  0.8238
  708EMI    H2"13452   4.201   0.826   1.080  0.8125 -0.6940  0.0852
  709EMI     N113453   6.698   5.299   4.771  0.3682  0.4803 -0.6510
  709EMI     C213454   6.651   5.418   4.742  0.0845 -0.4751 -0.3458
  709EMI     N313455   6.554   5.409   4.656  0.1678  0.7958 -0.1291
  709EMI     C413456   6.543   5.274   4.617  0.3597 -0.3647  0.4980
  709EMI     C513457   6.633   5.209   4.695  0.0152  0.1628  0.5041
  709EMI     H213458   6.684   5.516   4.775 -0.3290 -2.7311 -1.1123
  709EMI     H413459   6.471   5.237   4.546 -1.7104 -1.0212 -0.0206
  709EMI     H513460   6.651   5.104   4.690 -0.2771 -0.4110 -1.1950
  709EMI    C1'13461   6.491   5.524   4.587  0.0525  1.2241 -0.6392
  709EMI    H1'13462   6.536   5.542   4.494  2.7153 -4.5569 -0.2868
  709EMI    H1'13463   6.383   5.483   4.566 -2.3934 -2.6718  3.1685
  709EMI    H1'13464   6.495   5.606   4.653 -1.3249 -0.4688 -1.4778
  709EMI    C1"13465   6.810   5.259   4.855 -0.6565  0.3746 -0.3865
  709EMI    H1"13466   6.791   5.168   4.917 -3.3039 -0.8008  0.1151
  709EMI    H1"13467   6.818   5.336   4.936  0.9529 -0.9455  3.2561
  709EMI    C2"13468   6.946   5.244   4.779  0.0107  0.1766  0.3151
  709EMI    H2"13469   7.023   5.193   4.842 -0.3375  0.1113 -0.1156
  709EMI    H2"13470   6.940   5.176   4.694  0.2074 -1.9770  0.8607
  709EMI    H2"13471   6.979   5.342   4.737 -0.1807 -1.6261  3.3103
  710EMI     N113472   4.854   3.706   4.405 -0.1171 -0.3752 -0.3628
  710EMI     C213473   4.724   3.679   4.376  0.4146 -0.5769  0.2964
  710EMI     N313474   4.707   3.645   4.248 -0.0876  0.6086 -0.0006
  710EMI     C413475   4.830   3.662   4.184 -0.3602  0.0697 -0.3141
  710EMI     C513476   4.923   3.691   4.284  1.0107  0.2993 -0.9650
  710EMI     H213477   4.644   3.677   4.449  3.5563  1.0771  0.8934
  710EMI     H413478   4.868   3.635   4.082  1.8868  1.0648  0.1163
  710EMI     H513479   5.029   3.696   4.265  0.2781  0.7048  0.7025
  710EMI    C1'13480   4.588   3.588   4.183  0.1665 -0.6812  0.6053
  710EMI    H1'13481   4.529   3.540   4.263 -1.9965 -0.4393  1.9500
  710EMI    H1'13482   4.547   3.683   4.141 -1.4405  0.0748  1.7829
  710EMI    H1'13483   4.623   3.512   4.106 -0.8354 -4.0730 -2.1269
  710EMI    C1"13484   4.928   3.729   4.534 -0.7733  0.5593 -0.1607
  710EMI    H1"13485   4.855   3.764   4.601 -0.9901 -0.0707 -1.7124
  710EMI    H1"13486   5.011   3.796   4.519  1.0611  0.8186 -0.2996
  710EMI    C2"13487   4.989   3.603   4.585 -0.2305  0.0343  0.6602
  710EMI    H2"13488   5.065   3.630   4.653  0.4274 -0.8842 -1.5348
  710EMI    H2"13489   4.922   3.545   4.637  2.8561  2.6600 -0.4767
  710EMI    H2"13490   5.024   3.548   4.500  1.0208  0.7369  0.3693
  711EMI     N113491   0.209   3.954   1.152 -0.1282  0.1609 -0.4171
  711EMI     C213492   0.106   4.038   1.116  0.0799 -0.4387  0.1887
  711EMI     N313493   0.161   4.167   1.102  0.4385  0.2017 -0.3938
  711EMI     C413494   0.300   4.155   1.132  0.3977 -0.0015 -0.6133
  711EMI     C513495   0.326   4.028   1.164 -0.4404 -0.2650  0.7400
  711EMI     H213496   0.005   4.014   1.103 -1.9974  0.0084 -0.9143
  711EMI     H413497   0.371   4.237   1.130 -1.0869 -1.9511 -0.0013
  711EMI     H513498   0.430   3.994   1.181  1.7775  1.7270  0.7873
  711EMI    C1'13499   0.089   4.291   1.072  0.3124  0.1280  0.2501
  711EMI    H1'13500   0.136   4.370   1.126 -0.6567  1.1407 -0.2735
  711EMI    H1'13501   0.081   4.297   0.969  1.2697 -1.6660  2.3900
  711EMI    H1'13502  -0.009   4.288   1.119  2.3214  0.5359 -1.7236
  711EMI    C1"13503   0.206   3.801   1.158 -0.1779 -0.2273 -0.4827
  711EMI    H1"13504   0.296   3.765   1.114  0.4061 -0.0459  2.9040
  711EMI    H1"13505   0.117   3.755   1.108 -1.2033 -0.3898  0.8599
  711EMI    C2"13506   0.206   3.763   1.301 -0.6949 -0.4312 -0.2312
  711EMI    H2"13507   0.136   3.806   1.365 -2.4400 -0.3272 -2.3811
  711EMI    H2"13508   0.194   3.659   1.304  0.7620 -3.1563  2.5352
  711EMI    H2"13509   0.309   3.784   1.345 -0.4582  0.3839  1.3339
  712EMI     N113510   2.558   5.382   0.330  0.8019 -0.0782 -0.2725
  712EMI     C213511   2.658   5.335   0.259 -0.8666 -0.3807  0.0418
  712EMI     N313512   2.618   5.308   0.134 -0.8405 -0.3606  0.1854
  712EMI     C413513   2.488   5.356   0.122  0.1533 -0.3426  1.3127
  712EMI     C513514   2.457   5.409   0.242 -0.0916  0.1969 -0.8762
  712EMI     H213515   2.755   5.316   0.300 -0.1652 -1.1840  2.0175
  712EMI     H413516   2.437   5.365   0.023 -2.4837 -1.0656  1.0388
  712EMI     H513517   2.368   5.461   0.264 -2.4416  1.2131 -2.9480
  712EMI    C1'13518   2.700   5.264   0.020  0.1426 -0.4486  0.6013
  712EMI    H1'13519   2.638   5.210  -0.054  1.4369  3.8781 -0.6128
  712EMI    H1'13520   2.748   5.337  -0.043 -1.2502  1.2264  2.7535
  712EMI    H1'13521   2.782   5.194   0.044  0.7185 -1.8405  0.5304
  712EMI    C1"13522   2.561   5.440   0.464 -0.1878 -0.4704 -0.3588
  712EMI    H1"13523   2.502   5.378   0.534 -1.3003 -0.2593 -0.0580
  712EMI    H1"13524   2.515   5.542   0.449  3.4726 -2.0601  1.3767
  712EMI    C2"13525   2.705   5.448   0.529 -0.1330 -0.2497 -0.6594
  712EMI    H2"13526   2.757   5.354   0.520 -1.5913  2.2145  1.9384
  712EMI    H2"13527   2.763   5.530   0.483 -1.2178  2.7531 -0.5712
  712EMI    H2"13528   2.691   5.469   0.633  3.5532  1.5511  1.8693
  713EMI     N113529   3.217   5.446   2.441  0.5983 -0.2336  0.5412
  713EMI     C213530   3.186   5.321   2.403  0.1565 -0.0362  0.0195
  713EMI     N313531   3.265   5.283   2.304 -1.0297  0.3982 -0.0400
  713EMI     C413532   3.356   5.384   2.280  0.5109 -0.5638  0.1241
  713EMI     C513533   3.326   5.482   2.365  0.1884  0.1023 -0.8040
  713EMI     H213534   3.106   5.259   2.445 -4.1528  1.8447 -1.0681
  713EMI     H413535   3.437   5.381   2.213  0.4684  1.2757  2.0452
  713EMI     H513536   3.385   5.572   2.374 -0.9273  0.1997 -1.6640
  713EMI    C1'13537   3.251   5.173   2.208 -0.2919  0.0139  0.0725
  713EMI    H1'13538   3.277   5.215   2.111 -2.3177 -2.5752 -0.3077
  713EMI    H1'13539   3.317   5.088   2.227 -1.5806  0.6883  1.0378
  713EMI    H1'13540   3.147   5.139   2.198  0.2216 -1.4164 -3.2638
  713EMI    C1"13541   3.156   5.531   2.547  0.7958 -0.0010  0.8518
  713EMI    H1"13542   3.051   5.511   2.548 -2.7076  0.9825  1.2074
  713EMI    H1"13543   3.177   5.637   2.521  0.4534  0.5904  0.3992
  713EMI    C2"13544   3.219   5.498   2.678  0.1600 -0.6907 -0.9017
  713EMI    H2"13545   3.168   5.417   2.723 -3.2849  1.9690  2.2900
  713EMI    H2"13546   3.313   5.460   2.661 -2.3793 -1.9627  0.6485
  713EMI    H2"13547   3.221   5.591   2.741  2.8806  0.0542  2.5554
  714EMI     N113548   1.589   0.323   6.414  0.2969  0.6366 -0.0859
  714EMI     C213549   1.601   0.196   6.388 -0.2453 -0.2419  0.4076
  714EMI     N313550   1.520   0.159   6.289  0.6050  0.2062  0.0538
  714EMI     C413551   1.445   0.267   6.257  0.7281 -0.6755  0.3552
  714EMI     C513552   1.484   0.370   6.334  0.0270 -0.1816 -0.5967
  714EMI     H213553   1.669   0.135   6.435  0.6819 -1.1028  1.9153
  714EMI     H413554   1.365   0.273   6.183  1.0077  0.8898  1.2565
  714EMI     H513555   1.436   0.466   6.333  1.4735 -2.1021  0.9046
  714EMI    C1'13556   1.506   0.022   6.235  0.5858 -0.8975  0.4428
  714EMI    H1'13557   1.408  -0.017   6.256  1.2428 -0.5341  0.1031
  714EMI    H1'13558   1.506   0.033   6.124 -2.8265  0.4579 -0.7670
  714EMI    H1'13559   1.580  -0.047   6.265  0.6750  2.6130  3.6585
  714EMI    C1"13560   1.661   0.400   6.522  0.2606  0.1135 -0.0906
  714EMI    H1"13561   1.765   0.365   6.528 -0.6392 -0.3084  3.6519
  714EMI    H1"13562   1.619   0.383   6.622  2.2222 -0.4838  2.5820
  714EMI    C2"13563   1.663   0.549   6.489 -0.5312  0.0723  0.0028
  714EMI    H2"13564   1.564   0.589   6.509 -1.8169 -1.0657 -2.1758
  714EMI    H2"13565   1.724   0.606   6.566 -0.7187  1.6258  1.2833
  714EMI    H2"13566   1.703   0.564   6.381 -0.5741  0.9971 -3.3674
  715EMI     N113567   6.112   4.711   1.820  0.0540  0.1262  0.6663
  715EMI     C213568   6.084   4.585   1.786 -0.0682 -0.5011 -0.2520
  715EMI     N313569   6.080   4.567   1.656 -0.0222  0.1827 -0.1405
  715EMI     C413570   6.105   4.685   1.597 -0.4354  1.1709  0.1740
  715EMI     C513571   6.123   4.775   1.699 -0.2623 -0.3357  0.3499
  715EMI     H213572   6.083   4.505   1.859  2.5260 -4.3560  0.6525
  715EMI     H413573   6.113   4.687   1.489  0.1025  0.6348 -1.5297
  715EMI     H513574   6.151   4.877   1.689  0.3297 -0.4150  3.9786
  715EMI    C1'13575   6.082   4.442   1.573 -0.4780 -0.7994  0.2573
  715EMI    H1'13576   5.987   4.385   1.582 -0.6039 -1.9812  0.5169
  715EMI    H1'13577   6.106   4.461   1.464  1.0356 -0.9304 -1.7629
  715EMI    H1'13578   6.161   4.378   1.618 -0.8567  0.0806  3.5063
  715EMI    C1"13579   6.127   4.768   1.950  0.3476 -0.0534 -0.6247
  715EMI    H1"13580   6.134   4.876   1.935  3.0720 -3.3178 -1.2093
  715EMI    H1"13581   6.230   4.736   1.981  1.4747 -0.9236 -0.5902
  715EMI    C2"13582   6.025   4.720   2.053  0.3557 -0.5452 -0.3005
  715EMI    H2"13583   6.051   4.766   2.146 -2.7118 -0.2291  0.7455
  715EMI    H2"13584   5.926   4.758   2.029  0.2003 -1.8604 -2.6311
  715EMI    H2"13585   6.028   4.611   2.061 -2.7866  0.8327  0.2678
  716EMI     N113586   0.302   2.163   5.186  0.7018 -0.1585  0.4083
  716EMI     C213587   0.226   2.208   5.086 -0.8628  0.6417  0.1312
  716EMI     N313588   0.123   2.267   5.140  0.1306  0.2965  0.3568
  716EMI     C413589   0.127   2.251   5.277 -0.1483 -0.1420 -0.2779
  716EMI     C513590   0.239   2.183   5.307 -0.5367 -0.0796  0.2851
  716EMI     H213591   0.257   2.185   4.991 -1.7748 -2.9445 -0.4761
  716EMI     H413592   0.052   2.297   5.346  0.9191  0.0903  0.9469
  716EMI     H513593   0.288   2.148   5.398 -0.1822 -3.0432 -0.7550
  716EMI    C1'13594   0.014   2.339   5.073 -0.3668  0.3096  0.3466
  716EMI    H1'13595  -0.044   2.397   5.132  0.7595 -3.3465  0.3248
  716EMI    H1'13596   0.065   2.394   4.996 -1.2201  0.1776  3.5994
  716EMI    H1'13597  -0.062   2.269   5.035  2.9372  0.0581 -1.4393
  716EMI    C1"13598   0.431   2.097   5.177 -0.5042  0.6127 -0.2142
  716EMI    H1"13599   0.449   2.062   5.067 -0.5786 -1.0457 -0.7198
  716EMI    H1"13600   0.417   2.003   5.240 -2.1093 -1.1824  0.1054
  716EMI    C2"13601   0.549   2.185   5.218  0.1116  0.4242  0.8717
  716EMI    H2"13602   0.638   2.127   5.245  1.2791  0.6484  0.5464
  716EMI    H2"13603   0.581   2.243   5.136 -0.3342 -0.9219  3.1914
  716EMI    H2"13604   0.528   2.246   5.305  1.5657  3.1571 -0.3823
  717EMI     N113605   5.505   6.063   2.116  0.7293 -0.0139  0.7240
  717EMI     C213606   5.587   6.167   2.087 -0.6554 -0.5259  0.2536
  717EMI     N313607   5.582   6.260   2.186 -0.9216 -0.9882  0.1651
  717EMI     C413608   5.501   6.208   2.280 -0.6687 -0.3135 -0.3968
  717EMI     C513609   5.442   6.094   2.238  0.7109 -0.6692  0.6245
  717EMI     H213610   5.644   6.177   1.990 -1.5248  0.1016  0.0919
  717EMI     H413611   5.482   6.256   2.379 -0.2350  1.9377  0.3364
  717EMI     H513612   5.377   6.033   2.292 -0.4984  1.4353  0.2254
  717EMI    C1'13613   5.673   6.372   2.223 -0.4956  0.1528  0.0412
  717EMI    H1'13614   5.750   6.386   2.148 -0.9651  1.9353  0.7059
  717EMI    H1'13615   5.604   6.454   2.236 -1.6284 -0.7234 -0.2825
  717EMI    H1'13616   5.728   6.361   2.321 -0.6505 -1.5696 -0.3211
  717EMI    C1"13617   5.468   5.948   2.029  0.5835 -0.1309 -0.0559
  717EMI    H1"13618   5.486   5.985   1.926  0.9616 -2.2286 -1.4707
  717EMI    H1"13619   5.373   5.907   2.059  0.9236 -2.9203 -2.2796
  717EMI    C2"13620   5.559   5.831   2.060  0.0506 -0.3575 -0.6332
  717EMI    H2"13621   5.534   5.742   2.002 -3.3057 -1.5829  2.4098
  717EMI    H2"13622   5.665   5.868   2.049  0.6969  0.3334  3.0039
  717EMI    H2"13623   5.553   5.787   2.160 -0.4898 -0.6954 -2.7624
  718EMI     N113624   4.420   4.354   6.150  0.2160 -0.7690  0.1389
  718EMI     C213625   4.379   4.461   6.072  0.2759 -0.2864  0.1947
  718EMI     N313626   4.277   4.422   5.996  0.3008  0.0690  0.4044
  718EMI     C413627   4.245   4.292   6.029 -0.1245  0.1461  0.2846
  718EMI     C513628   4.333   4.246   6.120 -0.1255 -0.7070  0.4234
  718EMI     H213629   4.409   4.566   6.086  2.0517  0.4221 -0.6188
  718EMI     H413630   4.167   4.233   5.976  0.6986 -0.0419 -1.2894
  718EMI     H513631   4.346   4.151   6.170 -1.6499  2.9719 -0.8201
  718EMI    C1'13632   4.206   4.496   5.889 -0.4524  0.4549 -0.5432
  718EMI    H1'13633   4.281   4.546   5.832 -4.0951  2.5764  0.3281
  718EMI    H1'13634   4.161   4.420   5.832  1.6020 -0.1809  0.7637
  718EMI    H1'13635   4.133   4.560   5.929  0.3086  2.1778  1.5349
  718EMI    C1"13636   4.502   4.349   6.267  0.2363  0.5014 -1.4052
  718EMI    H1"13637   4.511   4.249   6.314 -3.0962  3.6095 -1.0762
  718EMI    H1"13638   4.452   4.414   6.339  0.1903  1.0430 -0.6100
  718EMI    C2"13639   4.639   4.402   6.231 -0.0857  0.0431 -0.2164
  718EMI    H2"13640   4.623   4.500   6.193  0.8487 -0.5594  0.8430
  718EMI    H2"13641   4.695   4.401   6.317 -0.6095 -0.6086 -0.0354
  718EMI    H2"13642   4.681   4.352   6.142  0.1958  1.5161 -1.4635
  719EMI     N113643   1.383   6.310   6.347  0.3957 -0.4222  0.2612
  719EMI     C213644   1.377   6.179   6.320 -0.0539 -0.0951 -0.4227
  719EMI     N313645   1.370   6.154   6.189  1.1552  0.5528 -0.0547
  719EMI     C413646   1.379   6.281   6.130  0.0613  0.2668  0.5131
  719EMI     C513647   1.387   6.377   6.221 -0.4198  0.1612  0.5467
  719EMI     H213648   1.365   6.096   6.393 -2.3951  2.3468  1.1323
  719EMI     H413649   1.387   6.302   6.029  0.3255  0.2010  2.8936
  719EMI     H513650   1.384   6.484   6.204  0.9269 -1.0692 -0.4907
  719EMI    C1'13651   1.356   6.033   6.108  0.3420  0.3519 -0.1453
  719EMI    H1'13652   1.389   5.950   6.165 -3.1788  1.0645 -1.8777
  719EMI    H1'13653   1.253   6.021   6.082  0.5552  1.7512 -0.4962
  719EMI    H1'13654   1.420   6.039   6.011  1.5298 -2.4309 -0.2676
  719EMI    C1"13655   1.400   6.368   6.480  0.7136  0.7099 -0.0429
  719EMI    H1"13656   1.404   6.280   6.548 -0.0429  3.4544  2.8338
  719EMI    H1"13657   1.311   6.429   6.492 -2.1084 -0.1436  0.4955
  719EMI    C2"13658   1.529   6.455   6.489  0.4526  0.3036 -0.3720
  719EMI    H2"13659   1.515   6.552   6.444  0.5324  2.1661  3.1090
  719EMI    H2"13660   1.554   6.484   6.593  3.4361 -1.2600 -0.8100
  719EMI    H2"13661   1.611   6.397   6.450  0.0791 -0.5517  1.6262
  720EMI     N113662   5.133   6.349   6.742 -0.6614  0.6151  0.2779
  720EMI     C213663   5.144   6.413   6.626 -0.7867  0.4949 -0.3116
  720EMI     N313664   5.097   6.332   6.528 -0.0479  0.7578 -0.0339
  720EMI     C413665   5.067   6.210   6.583 -0.0064 -0.6819 -0.0352
  720EMI     C513666   5.093   6.226   6.713  0.4096  0.4720 -0.6048
  720EMI     H213667   5.185   6.512   6.618 -0.5322  2.2312  0.9469
  720EMI     H413668   5.042   6.126   6.519 -0.1351 -0.5623 -0.1725
  720EMI     H513669   5.084   6.152   6.790 -2.2269  2.0861 -0.0217
  720EMI    C1'13670   5.071   6.366   6.387  0.0184 -0.2651 -0.5697
  720EMI    H1'13671   5.039   6.473   6.380  0.7022 -1.7940 -0.2468
  720EMI    H1'13672   5.153   6.341   6.327 -1.6924 -1.6796 -1.6614
  720EMI    H1'13673   4.987   6.302   6.368  0.2732 -1.4993  2.3856
  720EMI    C1"13674   5.130   6.399   6.880  0.1128  0.6423  0.1993
  720EMI    H1"13675   5.191   6.492   6.879  1.3791  1.3679 -2.1213
  720EMI    H1"13676   5.181   6.330   6.949 -1.4461  0.8702  0.3498
  720EMI    C2"13677   4.996   6.430   6.936  0.4181  0.0571  0.0107
  720EMI    H2"13678   4.953   6.509   6.873 -0.2031  1.2191  1.5464
  720EMI    H2"13679   4.930   6.351   6.925  0.0385  2.9299  2.1653
  720EMI    H2"13680   4.995   6.465   7.042  2.4236  0.3327 -0.7244
  721EMI     N113681   3.430   0.501   1.807  0.3305  0.7398  0.0574
  721EMI     C213682   3.456   0.627   1.845  0.0809 -0.3375  0.0074
  721EMI     N313683   3.430   0.716   1.750 -0.3530  0.1072  0.4463
  721EMI     C413684   3.383   0.645   1.645  0.0544  0.3314  0.2563
  721EMI     C513685   3.381   0.517   1.679 -0.5073  0.5986 -0.4416
  721EMI     H213686   3.489   0.667   1.941 -0.6901 -0.2769 -2.7184
  721EMI     H413687   3.329   0.684   1.557 -0.6318 -2.0674 -0.7061
  721EMI     H513688   3.335   0.444   1.613  0.4280  2.0958  3.6413
  721EMI    C1'13689   3.447   0.861   1.745 -0.6186 -0.8102 -0.2072
  721EMI    H1'13690   3.362   0.910   1.700 -3.3413  1.6639 -1.9945
  721EMI    H1'13691   3.466   0.909   1.838 -1.5603  3.4584 -1.9024
  721EMI    H1'13692   3.532   0.889   1.685 -0.5066  1.1703  0.0155
  721EMI    C1"13693   3.430   0.372   1.876  0.1721  0.3801 -0.0184
  721EMI    H1"13694   3.530   0.362   1.908 -2.1119 -0.8391  2.2382
  721EMI    H1"13695   3.396   0.289   1.813  0.4179  0.8146  0.5245
  721EMI    C2"13696   3.343   0.375   1.999  0.2691 -0.1011  0.6947
  721EMI    H2"13697   3.258   0.444   1.990 -1.8628 -2.0240  0.0788
  721EMI    H2"13698   3.304   0.268   2.016 -2.0449  1.5018  0.1296
  721EMI    H2"13699   3.395   0.402   2.090  0.1575 -0.3644 -0.0551
  722EMI     N113700   4.161   0.497   4.812  0.0416 -0.5747 -0.0416
  722EMI     C213701   4.269   0.535   4.885 -0.1628  0.9159 -0.1732
  722EMI     N313702   4.317   0.651   4.839 -0.4404 -0.7183  0.4296
  722EMI     C413703   4.233   0.697   4.745  0.0704  0.2764 -0.2388
  722EMI     C513704   4.138   0.602   4.723 -0.6548  0.4344 -0.0957
  722EMI     H213705   4.313   0.471   4.967  1.2792 -1.0795 -0.8722
  722EMI     H413706   4.245   0.788   4.689  0.8207 -2.6794 -1.3690
  722EMI     H513707   4.058   0.610   4.652  1.8191 -1.0200 -0.6503
  722EMI    C1'13708   4.427   0.734   4.894  0.2307 -0.2226  0.4545
  722EMI    H1'13709   4.420   0.754   4.996  0.4597 -1.5406  0.5772
  722EMI    H1'13710   4.521   0.684   4.873 -0.1664 -4.9820  0.0602
  722EMI    H1'13711   4.421   0.832   4.850 -0.0830  0.6995 -1.0336
  722EMI    C1"13712   4.074   0.375   4.807 -0.2991  0.4719 -0.1395
  722EMI    H1"13713   3.973   0.395   4.765  0.0991 -1.8687  1.1624
  722EMI    H1"13714   4.068   0.342   4.909 -1.1825  0.7590  2.8732
  722EMI    C2"13715   4.147   0.278   4.718 -0.8280 -0.4441  0.2425
  722EMI    H2"13716   4.248   0.255   4.762  0.0399 -2.6249  2.9195
  722EMI    H2"13717   4.103   0.183   4.726  2.0990  2.5958 -1.3580
  722EMI    H2"13718   4.137   0.306   4.610 -0.5759 -0.9625 -0.4271
  723EMI     N113719   1.428   0.703   2.873 -0.3072  0.1131 -0.8478
  723EMI     C213720   1.358   0.715   2.982  0.0448  0.8572  0.4355
  723EMI     N313721   1.371   0.602   3.052  0.8136  0.8499 -0.3391
  723EMI     C413722   1.459   0.516   2.987  0.2736 -0.8429  0.2449
  723EMI     C513723   1.500   0.587   2.880 -0.2398  1.2198  0.1273
  723EMI     H213724   1.293   0.794   3.010  1.9087 -0.7536  0.7868
  723EMI     H413725   1.485   0.416   3.013  1.9748  2.1183  0.1947
  723EMI     H513726   1.579   0.556   2.812 -1.1581  0.1970 -0.7742
  723EMI    C1'13727   1.321   0.573   3.176  0.3216 -0.1616  0.4921
  723EMI    H1'13728   1.390   0.613   3.247  1.1770  1.2792  1.8757
  723EMI    H1'13729   1.222   0.613   3.190  0.7709 -0.1645  0.7958
  723EMI    H1'13730   1.320   0.472   3.196 -1.1390 -0.1978  3.3008
  723EMI    C1"13731   1.443   0.810   2.769  0.4871 -0.3822 -0.4072
  723EMI    H1"13732   1.543   0.855   2.775  1.9289  0.3301  1.6514
  723EMI    H1"13733   1.374   0.887   2.795 -1.0374  1.8578  0.4371
  723EMI    C2"13734   1.404   0.739   2.639 -0.3811 -0.1721 -0.6674
  723EMI    H2"13735   1.413   0.809   2.556 -0.9744  0.9585  2.6200
  723EMI    H2"13736   1.462   0.649   2.617 -1.6574 -2.3311 -0.9721
  723EMI    H2"13737   1.304   0.714   2.663  0.9285 -0.0839 -1.2231
  724EMI     N113738   4.627   0.991   6.285  0.4872 -0.1284  0.0873
  724EMI     C213739   4.627   0.886   6.368  0.6403 -0.4512 -0.1000
  724EMI     N313740   4.737   0.815   6.349  0.2144 -0.2862 -1.1325
  724EMI     C413741   4.813   0.888   6.260  0.4955 -0.2652  0.3805
  724EMI     C513742   4.740   0.989   6.210  0.1095  0.4762  0.9636
  724EMI     H213743   4.550   0.869   6.442 -1.7505  0.2469 -1.5533
  724EMI     H413744   4.909   0.852   6.234 -0.0104  1.2112 -1.4764
  724EMI     H513745   4.771   1.049   6.126 -3.4256  0.4328  0.8482
  724EMI    C1'13746   4.789   0.694   6.418  0.0838  0.3902  0.2671
  724EMI    H1'13747   4.739   0.605   6.382 -0.7799 -3.5441 -2.6753
  724EMI    H1'13748   4.899   0.678   6.404  0.6782 -0.2673 -4.5161
  724EMI    H1'13749   4.760   0.691   6.529 -0.5838  1.5438 -0.5104
  724EMI    C1"13750   4.536   1.102   6.297 -0.3748 -0.0693  0.1055
  724EMI    H1"13751   4.583   1.190   6.337 -0.5615  0.7446 -0.2781
  724EMI    H1"13752   4.455   1.074   6.371 -2.6126 -3.9656  1.0558
  724EMI    C2"13753   4.469   1.129   6.160  0.5300  0.1347  0.5650
  724EMI    H2"13754   4.438   1.044   6.108 -0.4027  0.8867  0.1329
  724EMI    H2"13755   4.383   1.193   6.163 -0.8599 -1.5006 -1.1288
  724EMI    H2"13756   4.547   1.168   6.096  0.0412 -3.8094  4.0589
  725EMI     N113757   6.269   0.940   1.205 -0.2475 -0.4592  0.3584
  725EMI     C213758   6.301   1.011   1.312  0.4710  0.5630 -0.1633
  725EMI     N313759   6.197   1.010   1.404 -0.7642 -0.0145  0.2916
  725EMI     C413760   6.100   0.922   1.352  0.7165 -0.7106 -0.2103
  725EMI     C513761   6.144   0.877   1.232  0.3128  0.0680 -0.0462
  725EMI     H213762   6.395   1.066   1.325 -0.6489  0.8569  2.9347
  725EMI     H413763   6.006   0.902   1.401  0.6111 -1.7569  2.1106
  725EMI     H513764   6.091   0.813   1.168  2.0861  1.7417  0.4678
  725EMI    C1'13765   6.202   1.050   1.542  0.8188  0.1487  0.2498
  725EMI    H1'13766   6.282   1.116   1.552  0.6587 -1.2009 -1.5323
  725EMI    H1'13767   6.110   1.094   1.574 -1.4787 -0.5463 -0.3154
  725EMI    H1'13768   6.222   0.960   1.608  0.4162 -2.4444 -0.2124
  725EMI    C1"13769   6.352   0.907   1.083  0.3631  0.3958  0.0682
  725EMI    H1"13770   6.433   0.981   1.072  0.9173 -0.8454  1.1403
  725EMI    H1"13771   6.284   0.904   0.997  0.0202  0.0501  2.2793
  725EMI    C2"13772   6.407   0.767   1.103  0.2135 -0.9954  0.0384
  725EMI    H2"13773   6.322   0.694   1.132 -1.5832 -1.6986  2.2571
  725EMI    H2"13774   6.457   0.729   1.014 -0.7522 -0.8750 -1.7211
  725EMI    H2"13775   6.474   0.766   1.183 -0.0927  0.4181 -4.5783
  726EMI     N113776   3.819   6.437   0.467 -0.1435 -0.0051 -0.2189
  726EMI     C213777   3.717   6.399   0.390 -0.3115  0.2628  0.4915
  726EMI     N313778   3.742   6.280   0.331 -0.3526 -0.5738 -0.1404
  726EMI     C413779   3.866   6.238   0.366 -0.3058 -0.0212  0.3386
  726EMI     C513780   3.910   6.332   0.455  0.2732  0.3037  0.0264
  726EMI     H213781   3.631   6.451   0.366  2.0428 -1.6298 -0.5926
  726EMI     H413782   3.900   6.149   0.335 -1.7252  1.4261  0.3957
  726EMI     H513783   4.012   6.318   0.493  2.3042 -0.5877  0.6239
  726EMI    C1'13784   3.651   6.209   0.242  0.0435  1.1026  0.4889
  726EMI    H1'13785   3.701   6.143   0.169 -0.0689  0.3873  0.9906
  726EMI    H1'13786   3.572   6.163   0.303 -2.6967  0.8879  2.4388
  726EMI    H1'13787   3.613   6.293   0.181 -0.0304  0.1107  2.6668
  726EMI    C1"13788   3.848   6.562   0.540  0.4394  0.2147 -0.4394
  726EMI    H1"13789   3.875   6.642   0.472 -0.0670 -1.1553  2.5245
  726EMI    H1"13790   3.931   6.558   0.610 -0.2858  2.1002 -1.6615
  726EMI    C2"13791   3.716   6.592   0.611  0.1031 -0.5356 -0.8964
  726EMI    H2"13792   3.671   6.495   0.638  3.8804  0.3159  0.1189
  726EMI    H2"13793   3.729   6.659   0.704 -2.3562 -2.5096  2.0167
  726EMI    H2"13794   3.654   6.642   0.543 -0.2434  1.3131  1.0030
  727EMI     N113795   5.980   1.055   0.959  0.2610  0.0839 -0.1169
  727EMI     C213796   5.877   1.025   1.040  0.2084 -0.1139 -0.0896
  727EMI     N313797   5.888   1.093   1.160 -0.5922 -0.1129  0.0106
  727EMI     C413798   6.000   1.169   1.144 -0.7183  0.1526  0.3433
  727EMI     C513799   6.061   1.148   1.024 -0.2866  0.2628  0.2903
  727EMI     H213800   5.797   0.950   1.021  0.7533 -2.6839 -1.9238
  727EMI     H413801   6.033   1.246   1.215 -1.6607  1.4548  3.4799
  727EMI     H513802   6.142   1.207   0.981  1.0008  0.3936 -0.6008
  727EMI    C1'13803   5.801   1.085   1.279  0.6695 -0.0322  0.2330
  727EMI    H1'13804   5.866   1.113   1.359  0.2207  0.1409  0.7541
  727EMI    H1'13805   5.719   1.161   1.267  0.8367  2.7686  0.7295
  727EMI    H1'13806   5.758   0.977   1.273 -0.6746 -1.7322 -1.0835
  727EMI    C1"13807   6.001   1.017   0.820 -0.2213 -0.1916  0.1007
  727EMI    H1"13808   5.939   0.937   0.788 -1.4880  1.2102 -1.5974
  727EMI    H1"13809   6.111   0.988   0.818  1.7824  1.6342 -1.4267
  727EMI    C2"13810   5.972   1.121   0.718  0.4755 -0.1776 -0.2161
  727EMI    H2"13811   6.014   1.078   0.622  0.5446  1.1466 -1.3919
  727EMI    H2"13812   5.865   1.132   0.716  1.8355 -0.1907  0.4708
  727EMI    H2"13813   6.009   1.212   0.746 -0.2196  0.8736  2.0631
  728EMI     N113814   2.631   2.000   2.454 -0.0860  0.5594 -0.2920
  728EMI     C213815   2.603   1.866   2.475  0.1961  0.1337  0.1354
  728EMI     N313816   2.519   1.855   2.577  0.2882  0.5215  0.4380
  728EMI     C413817   2.490   1.982   2.625 -0.4792  0.6057  0.6950
  728EMI     C513818   2.556   2.068   2.547 -0.0414 -0.8486  0.0491
  728EMI     H213819   2.663   1.791   2.436  0.0371  0.5441  0.7303
  728EMI     H413820   2.421   2.019   2.707 -0.8087 -1.7041  1.8889
  728EMI     H513821   2.542   2.177   2.563  0.1399  0.8976 -1.0137
  728EMI    C1'13822   2.475   1.736   2.658  0.0505  0.4827 -0.1636
  728EMI    H1'13823   2.396   1.763   2.726 -0.4434  1.1277 -2.5584
  728EMI    H1'13824   2.421   1.676   2.589  0.3223  1.6964  0.1774
  728EMI    H1'13825   2.556   1.678   2.696 -0.1237 -2.0385  0.2409
  728EMI    C1"13826   2.722   2.059   2.351 -0.0966  0.2733 -0.4076
  728EMI    H1"13827   2.719   2.168   2.363  1.1605 -0.5471  2.0012
  728EMI    H1"13828   2.699   2.019   2.252  1.5275  0.4261  0.6213
  728EMI    C2"13829   2.862   2.002   2.383  0.7693 -0.7328 -0.0083
  728EMI    H2"13830   2.882   2.034   2.487  1.5526  2.2857  0.2289
  728EMI    H2"13831   2.860   1.898   2.372 -1.1903  1.6338 -0.5100
  728EMI    H2"13832   2.929   2.045   2.309  0.7695 -0.6341 -0.8762
  729EMI     N113833   2.587   2.697   2.196 -0.4638  0.5418 -0.5727
  729EMI     C213834   2.696   2.664   2.276 -0.1985  0.2623 -0.0964
  729EMI     N313835   2.786   2.764   2.264 -0.1402  0.0325  0.4357
  729EMI     C413836   2.737   2.856   2.177 -0.3654  0.3365 -0.4144
  729EMI     C513837   2.612   2.821   2.135 -0.1428 -0.0075  0.1380
  729EMI     H213838   2.702   2.578   2.346  1.5877  0.3852  0.1331
  729EMI     H413839   2.784   2.949   2.145  0.9760  2.3180  2.5046
  729EMI     H513840   2.543   2.863   2.067  1.4617 -3.7650 -1.0274
  729EMI    C1'13841   2.917   2.777   2.336  0.1138 -0.0694 -0.1684
  729EMI    H1'13842   2.957   2.690   2.384 -3.0182 -1.1000  1.0669
  729EMI    H1'13843   2.987   2.808   2.261  0.6812 -0.9886 -0.4877
  729EMI    H1'13844   2.911   2.861   2.406  0.8257  0.6991  0.0144
  729EMI    C1"13845   2.458   2.635   2.175 -0.0524 -0.6490  1.1465
  729EMI    H1"13846   2.398   2.691   2.103  0.3576 -1.0859  1.1789
  729EMI    H1"13847   2.412   2.627   2.274  1.4434  0.0948  1.5908
  729EMI    C2"13848   2.464   2.492   2.122  0.0702 -0.3867 -0.2051
  729EMI    H2"13849   2.509   2.422   2.199  2.1339 -1.1784  0.9951
  729EMI    H2"13850   2.364   2.456   2.096  1.7451  1.4280  0.7999
  729EMI    H2"13851   2.525   2.493   2.032  0.3729  0.7321 -0.8255
  730EMI     N113852   1.595   0.010   0.002 -0.2232  0.4915  0.0582
  730EMI     C213853   1.556   0.105   0.088 -0.0336 -0.3101 -0.9476
  730EMI     N313854   1.634   0.213   0.075 -0.3185  0.7442  0.1361
  730EMI     C413855   1.714   0.183  -0.033 -0.1050 -0.5201 -0.3255
  730EMI     C513856   1.691   0.059  -0.081 -0.0842 -0.6604 -0.0868
  730EMI     H213857   1.486   0.099   0.167 -0.3339  0.6804 -1.8062
  730EMI     H413858   1.788   0.257  -0.061 -0.3918  1.2109  1.8630
  730EMI     H513859   1.742  -0.008  -0.153  3.3697 -2.5232  3.9199
  730EMI    C1'13860   1.645   0.340   0.143  0.8901  0.6057 -0.1352
  730EMI    H1'13861   1.630   0.315   0.248 -1.4254  2.2917 -0.2609
  730EMI    H1'13862   1.746   0.379   0.141  0.8096  1.4192  3.3147
  730EMI    H1'13863   1.566   0.409   0.106 -0.6746 -0.1204  1.5304
  730EMI    C1"13864   1.549  -0.125  -0.028 -0.1259  0.9295 -0.1315
  730EMI    H1"13865   1.563  -0.148  -0.134 -2.5421  2.0147  1.2170
  730EMI    H1"13866   1.441  -0.127  -0.005  1.1377 -0.8527 -0.7427
  730EMI    C2"13867   1.638  -0.224   0.056  0.1072  0.4653 -0.1920
  730EMI    H2"13868   1.597  -0.235   0.160  1.2584  1.6940 -0.1593
  730EMI    H2"13869   1.648  -0.316   0.007  0.0458  1.6562 -0.2164
  730EMI    H2"13870   1.738  -0.181   0.056  1.6000  2.1907 -3.3964
  731EMI     N113871   6.236   5.418   4.902  0.6501  0.5620  0.3575
  731EMI     C213872   6.305   5.418   5.015  0.2660 -0.3207  0.0073
  731EMI     N313873   6.373   5.303   5.023  0.7132 -0.1040  0.3729
  731EMI     C413874   6.335   5.229   4.911  0.0530  0.3600  0.0508
  731EMI     C513875   6.256   5.301   4.834 -0.1493 -0.1095  0.4392
  731EMI     H213876   6.304   5.501   5.087 -2.0247 -0.0344  0.4824
  731EMI     H413877   6.386   5.137   4.890 -0.8494  1.5266 -0.3575
  731EMI     H513878   6.222   5.265   4.741  0.2302 -1.1327  0.7425
  731EMI    C1'13879   6.467   5.251   5.127  0.5502 -1.3679 -0.1164
  731EMI    H1'13880   6.428   5.160   5.172 -0.0757 -0.7263 -0.3288
  731EMI    H1'13881   6.566   5.241   5.084  1.6435  0.7371 -0.4028
  731EMI    H1'13882   6.477   5.327   5.205  0.8468  0.3659 -3.0539
  731EMI    C1"13883   6.159   5.528   4.845  0.5200  0.4895 -0.0691
  731EMI    H1"13884   6.176   5.536   4.743 -0.3095 -0.5307 -1.1510
  731EMI    H1"13885   6.193   5.619   4.893  0.0047 -0.0751  0.7919
  731EMI    C2"13886   6.014   5.506   4.880 -0.2326 -0.0354 -1.1842
  731EMI    H2"13887   5.943   5.572   4.828 -1.6620 -0.4123  0.1705
  731EMI    H2"13888   5.981   5.408   4.850 -0.8053  0.9207  0.2989
  731EMI    H2"13889   6.002   5.501   4.989 -2.2578 -1.0387 -0.5029
  732EMI     N113890   3.897   1.866   6.133 -0.3058 -0.6202  0.7932
  732EMI     C213891   4.025   1.851   6.166 -0.1511 -0.4171  0.6054
  732EMI     N313892   4.053   1.717   6.143 -1.0114 -0.2989 -0.3986
  732EMI     C413893   3.939   1.650   6.107  1.0760 -1.0378  0.3494
  732EMI     C513894   3.839   1.746   6.102 -0.3794  0.5175 -0.4238
  732EMI     H213895   4.084   1.943   6.186  0.0665  0.1402  1.0947
  732EMI     H413896   3.930   1.556   6.057  2.6989  0.4394 -3.3610
  732EMI     H513897   3.738   1.733   6.062 -2.1046 -1.1281  2.2498
  732EMI    C1'13898   4.179   1.646   6.164 -0.1491 -0.7239  0.1686
  732EMI    H1'13899   4.253   1.718   6.203 -0.4617  0.3535 -1.5790
  732EMI    H1'13900   4.162   1.561   6.227  0.2309  3.1284  1.1585
  732EMI    H1'13901   4.193   1.609   6.064 -0.3799  0.5449 -0.3254
  732EMI    C1"13902   3.814   1.983   6.156 -0.3954  0.5294 -0.2448
  732EMI    H1"13903   3.870   2.036   6.231  1.4847  0.7189  1.7987
  732EMI    H1"13904   3.717   1.945   6.199 -0.4628  0.2580  1.7394
  732EMI    C2"13905   3.800   2.063   6.032 -0.3967  0.3198 -0.5009
  732EMI    H2"13906   3.751   2.005   5.950  0.3198 -0.7923  0.5371
  732EMI    H2"13907   3.735   2.147   6.057  0.4757 -0.2514  0.4049
  732EMI    H2"13908   3.897   2.080   5.995  0.6224 -0.3992  2.1647
  733EMI     N113909   5.758   1.736   5.263 -0.2172 -0.3057  0.6636
  733EMI     C213910   5.711   1.689   5.383  0.0105  0.6889 -0.1611
  733EMI     N313911   5.572   1.704   5.391  1.2487 -0.0793 -0.3270
  733EMI     C413912   5.534   1.749   5.268  0.0471 -0.2747 -0.0964
  733EMI     C513913   5.644   1.767   5.191 -0.1137  0.0696  0.4818
  733EMI     H213914   5.775   1.663   5.466 -0.3448 -1.1501  0.7513
  733EMI     H413915   5.432   1.782   5.241  1.9335  0.9313 -0.2246
  733EMI     H513916   5.650   1.808   5.096  1.4770 -0.0082 -0.0764
  733EMI    C1'13917   5.490   1.695   5.507  0.6273  0.4656  0.1449
  733EMI    H1'13918   5.530   1.757   5.585 -1.8610  0.1041 -2.7040
  733EMI    H1'13919   5.387   1.729   5.492  1.2733  0.2108  0.5008
  733EMI    H1'13920   5.483   1.596   5.540 -1.5155 -0.8572 -1.0823
  733EMI    C1"13921   5.901   1.732   5.209  0.5521  0.0779 -0.1738
  733EMI    H1"13922   5.928   1.645   5.149 -1.0969  1.3764  0.5343
  733EMI    H1"13923   5.974   1.738   5.297 -0.1182 -2.0039  0.2439
  733EMI    C2"13924   5.928   1.859   5.127 -0.3276  0.0700  0.2181
  733EMI    H2"13925   5.891   1.949   5.179 -2.5338  0.5490  0.2897
  733EMI    H2"13926   6.031   1.872   5.108 -0.4570 -1.1492 -2.3432
  733EMI    H2"13927   5.874   1.859   5.041  3.2105 -0.7580 -0.0661
  734EMI     N113928   3.410   1.828   2.518 -0.2441 -0.7165 -0.9995
  734EMI     C213929   3.332   1.756   2.597 -0.2299  0.3610  0.8335
  734EMI     N313930   3.380   1.759   2.725  0.1430  0.1420 -0.1260
  734EMI     C413931   3.500   1.824   2.715  0.5995 -0.2694 -0.8389
  734EMI     C513932   3.519   1.860   2.587  0.6754 -0.4319 -0.3081
  734EMI     H213933   3.244   1.706   2.563 -1.3018  1.9092 -0.5188
  734EMI     H413934   3.561   1.852   2.800 -1.2798  2.4100 -1.0929
  734EMI     H513935   3.597   1.926   2.557  0.0252 -0.1914 -0.1850
  734EMI    C1'13936   3.326   1.707   2.848 -0.4046  0.2088  0.0774
  734EMI    H1'13937   3.265   1.621   2.823  2.0310  0.3878  0.2605
  734EMI    H1'13938   3.402   1.666   2.908  0.1664  1.5402  3.2529
  734EMI    H1'13939   3.280   1.790   2.910 -4.7621  0.4137  2.8878
  734EMI    C1"13940   3.387   1.886   2.386  0.3636  0.2813 -0.3619
  734EMI    H1"13941   3.470   1.841   2.328 -0.2964  0.5626 -1.6218
  734EMI    H1"13942   3.404   1.994   2.390  0.2855  1.6527  0.0586
  734EMI    C2"13943   3.252   1.838   2.338 -0.2113  0.1241 -0.0485
  734EMI    H2"13944   3.236   1.732   2.343  0.8521  0.5834 -0.1645
  734EMI    H2"13945   3.174   1.891   2.398  2.2125 -0.7357 -0.0653
  734EMI    H2"13946   3.250   1.874   2.235 -3.3253 -0.4630 -0.6296
  735EMI     N113947   1.198   6.488   1.464 -0.2421  0.0562  0.1908
  735EMI     C213948   1.309   6.409   1.472 -0.3454  0.0131 -0.0125
  735EMI     N313949   1.321   6.328   1.364  0.2782  0.2776 -0.5580
  735EMI     C413950   1.223   6.372   1.279 -0.2076  0.2807  0.5694
  735EMI     C513951   1.145   6.463   1.338  0.5477  0.4542  0.5071
  735EMI     H213952   1.379   6.393   1.557  0.0797  2.3097  1.2023
  735EMI     H413953   1.196   6.321   1.188 -1.4960 -0.7583  4.7405
  735EMI     H513954   1.054   6.514   1.297  0.9534  1.1361  3.1968
  735EMI    C1'13955   1.415   6.214   1.351 -0.3241 -0.1482  0.2911
  735EMI    H1'13956   1.499   6.251   1.402 -1.6194 -0.8577 -0.2043
  735EMI    H1'13957   1.386   6.119   1.393 -1.7615 -0.1351  1.1529
  735EMI    H1'13958   1.436   6.198   1.248 -1.5889 -1.3669  0.4924
  735EMI    C1"13959   1.142   6.589   1.560  0.8142  0.2187  0.8159
  735EMI    H1"13960   1.058   6.653   1.522 -2.0610  1.3434 -0.7479
  735EMI    H1"13961   1.220   6.650   1.601  1.8086 -1.0234  1.8442
  735EMI    C2"13962   1.079   6.518   1.689  0.1395  0.0498 -0.4020
  735EMI    H2"13963   1.062   6.588   1.778 -1.7695  2.1208  0.6200
  735EMI    H2"13964   0.975   6.500   1.660  1.2899  3.1210 -0.2499
  735EMI    H2"13965   1.117   6.417   1.709 -1.2359 -1.9136 -0.0367
  736EMI     N113966   2.650   4.048   0.381  0.4111 -0.1829 -0.4011
  736EMI     C213967   2.636   4.038   0.251 -0.1158 -0.2079  0.0549
  736EMI     N313968   2.755   4.082   0.189 -0.3996  0.1189  0.3141
  736EMI     C413969   2.830   4.130   0.290 -0.1081  0.7123 -0.3215
  736EMI     C513970   2.767   4.116   0.405  0.1212 -0.4313  0.6601
  736EMI     H213971   2.560   3.995   0.192  0.3127  1.1223  0.2888
  736EMI     H413972   2.925   4.165   0.285 -0.7599 -1.7060 -0.2937
  736EMI     H513973   2.797   4.146   0.497  2.9298 -0.1970 -2.7017
  736EMI    C1'13974   2.794   4.089   0.047 -0.3661  0.4298  0.3626
  736EMI    H1'13975   2.856   3.998   0.021  2.6502 -0.8434  0.2568
  736EMI    H1'13976   2.709   4.096  -0.023 -1.2447 -0.5820  1.9555
  736EMI    H1'13977   2.854   4.180   0.039 -1.9718  1.1839 -0.9194
  736EMI    C1"13978   2.552   4.026   0.490 -0.0916  0.0992  0.9431
  736EMI    H1"13979   2.449   4.039   0.460  1.4551 -1.0538  0.0345
  736EMI    H1"13980   2.570   4.103   0.571 -0.8755 -0.6237 -0.1376
  736EMI    C2"13981   2.558   3.891   0.557  0.1571  0.4651  0.1851
  736EMI    H2"13982   2.657   3.885   0.609 -0.1843  2.4406 -3.3759
  736EMI    H2"13983   2.477   3.884   0.630 -2.6918  0.1904  0.6051
  736EMI    H2"13984   2.558   3.817   0.472  0.6693  0.0718 -1.9573
  737EMI     N113985   3.145   5.137   6.403 -0.1066  0.2655 -0.6927
  737EMI     C213986   3.253   5.090   6.335  0.4526  0.1109 -0.5491
  737EMI     N313987   3.247   4.958   6.328  0.3344  0.0488  0.1551
  737EMI     C413988   3.127   4.922   6.382  0.1441  0.4429 -0.2903
  737EMI     C513989   3.061   5.031   6.429 -0.2252  0.2316  1.1046
  737EMI     H213990   3.341   5.146   6.303 -2.4529  1.2435 -2.2430
  737EMI     H413991   3.084   4.821   6.383 -2.6114 -0.3662  1.0219
  737EMI     H513992   2.958   5.035   6.460  0.2248  0.7239 -1.3570
  737EMI    C1'13993   3.342   4.865   6.262  0.1057 -0.1067  0.7075
  737EMI    H1'13994   3.442   4.905   6.269  0.8758  2.5483 -2.3425
  737EMI    H1'13995   3.340   4.766   6.310  0.7196 -1.2140 -0.0034
  737EMI    H1'13996   3.325   4.854   6.150  0.0391 -1.4487 -0.0689
  737EMI    C1"13997   3.132   5.280   6.456  0.3264 -0.1598 -0.3516
  737EMI    H1"13998   3.088   5.350   6.385  1.2636 -1.0148 -0.0064
  737EMI    H1"13999   3.226   5.325   6.484 -2.3090  0.9377  0.5946
  737EMI    C2"14000   3.042   5.272   6.581 -0.0550  0.3704  0.7908
  737EMI    H2"14001   2.937   5.235   6.546 -0.6888 -1.7719 -0.4223
  737EMI    H2"14002   3.092   5.205   6.661  1.2528 -3.9221  0.5677
  737EMI    H2"14003   3.034   5.370   6.613  1.6294  0.8544 -1.6578
  738EMI     N114004   4.769   3.841   6.546  0.3054  0.1008  0.4588
  738EMI     C214005   4.879   3.893   6.584 -0.3675 -0.1824 -0.1490
  738EMI     N314006   4.974   3.798   6.578 -0.5607 -0.1837  0.2933
  738EMI     C414007   4.919   3.682   6.531  0.2170  0.3836 -0.3510
  738EMI     C514008   4.789   3.711   6.504 -0.7835  0.2789  0.0620
  738EMI     H214009   4.879   3.992   6.628 -0.5040  0.1497 -0.1132
  738EMI     H414010   4.957   3.587   6.520 -1.0411 -1.3130  1.1140
  738EMI     H514011   4.716   3.642   6.466  2.3754  1.1130  1.2525
  738EMI    C1'14012   5.117   3.813   6.613  0.2967 -0.1433  0.1373
  738EMI    H1'14013   5.187   3.777   6.541 -0.1836 -0.6035  2.0074
  738EMI    H1'14014   5.140   3.915   6.645 -1.5849  0.3747  1.8289
  738EMI    H1'14015   5.133   3.747   6.697  1.6458  2.7018  0.7946
  738EMI    C1"14016   4.638   3.906   6.546 -0.0440  0.1958  0.7692
  738EMI    H1"14017   4.586   3.850   6.468 -0.0965 -2.1601  1.6335
  738EMI    H1"14018   4.642   4.006   6.530  0.8394 -3.5310  3.4394
  738EMI    C2"14019   4.555   3.884   6.669  0.7351 -0.8930  0.0484
  738EMI    H2"14020   4.467   3.935   6.647  1.6732 -1.0571  0.6510
  738EMI    H2"14021   4.534   3.778   6.683  1.1572 -1.2406 -0.3272
  738EMI    H2"14022   4.596   3.931   6.760 -1.2761 -0.8025  1.9883
  739EMI     N114023   3.713   2.330   1.130  0.2828  0.4054  0.4287
  739EMI     C214024   3.803   2.431   1.107  0.8309 -0.0499  0.4133
  739EMI     N314025   3.925   2.389   1.140  0.2631  0.3913 -0.2337
  739EMI     C414026   3.909   2.268   1.202 -0.8333 -0.6859  0.7836
  739EMI     C514027   3.780   2.233   1.200  0.7328  0.5694  0.5800
  739EMI     H214028   3.781   2.524   1.064  0.7463 -0.3459  0.8495
  739EMI     H414029   3.991   2.197   1.234 -1.1612 -0.3672 -0.2493
  739EMI     H514030   3.743   2.142   1.240  2.3573 -0.7713  1.1716
  739EMI    C1'14031   4.059   2.453   1.144  0.7139 -0.0035  0.0668
  739EMI    H1'14032   4.041   2.558   1.149  0.7460 -1.3703  0.6950
  739EMI    H1'14033   4.109   2.417   1.234  0.5317 -1.7257 -1.5506
  739EMI    H1'14034   4.113   2.425   1.056 -0.7121  3.9316  0.2805
  739EMI    C1"14035   3.569   2.329   1.108  0.3840 -0.8442 -0.5421
  739EMI    H1"14036   3.533   2.239   1.153 -0.7886  0.2056  2.7551
  739EMI    H1"14037   3.547   2.321   1.003 -0.3364  0.1398 -0.4892
  739EMI    C2"14038   3.513   2.445   1.187  0.4573 -1.1265 -0.1880
  739EMI    H2"14039   3.556   2.553   1.163 -2.0024  1.8686 -0.2724
  739EMI    H2"14040   3.405   2.456   1.163  1.0104  1.8674  0.3233
  739EMI    H2"14041   3.534   2.427   1.293 -1.9606 -0.8403 -3.1432
  740EMI     N114042   6.345   3.250   3.574 -0.1592  0.5628 -0.7633
  740EMI     C214043   6.227   3.198   3.607  0.2862  0.1389  1.2111
  740EMI     N314044   6.207   3.073   3.559  0.5613 -0.4564 -0.3722
  740EMI     C414045   6.316   3.053   3.484 -0.5329 -0.0760  0.3494
  740EMI     C514046   6.401   3.158   3.489  0.0529  0.5012 -0.5688
  740EMI     H214047   6.159   3.237   3.681  5.1869 -3.2553 -1.6580
  740EMI     H414048   6.332   2.957   3.444 -1.7986  0.5007  3.5357
  740EMI     H514049   6.503   3.160   3.449  0.9621  1.2869 -0.6862
  740EMI    C1'14050   6.094   2.989   3.558  0.4663 -0.8158  0.2469
  740EMI    H1'14051   6.111   2.891   3.512  2.6407  0.1339 -1.2976
  740EMI    H1'14052   6.073   2.963   3.662 -3.5191 -1.4546  0.8998
  740EMI    H1'14053   5.997   3.036   3.535 -1.4851 -1.2326 -0.0276
  740EMI    C1"14054   6.411   3.378   3.618 -0.0740 -0.2167 -0.0640
  740EMI    H1"14055   6.408   3.449   3.530 -0.8410  1.1854 -1.9056
  740EMI    H1"14056   6.518   3.356   3.655 -1.1303  3.4990  1.2180
  740EMI    C2"14057   6.331   3.433   3.734  0.8255 -0.0999  0.5509
  740EMI    H2"14058   6.358   3.538   3.759 -0.7399 -1.3288  0.2624
  740EMI    H2"14059   6.226   3.433   3.702 -1.4265  3.3362 -2.0206
  740EMI    H2"14060   6.337   3.369   3.819 -4.2329 -0.3323 -0.4719
  741EMI     N114061   1.702   3.013   0.875  0.8019 -0.2626 -0.5189
  741EMI     C214062   1.740   3.115   0.959  0.6767 -0.0527 -0.7870
  741EMI     N314063   1.715   3.234   0.895  0.2625  0.0150 -0.0985
  741EMI     C414064   1.650   3.200   0.774 -0.4831  0.5663  0.6566
  741EMI     C514065   1.645   3.064   0.766 -0.0710  0.2192  0.5671
  741EMI     H214066   1.779   3.125   1.058 -1.3758 -2.4028  1.2148
  741EMI     H414067   1.609   3.277   0.707 -0.8263 -0.3592 -1.8597
  741EMI     H514068   1.601   3.004   0.687 -1.2049 -0.9963  1.0658
  741EMI    C1'14069   1.727   3.372   0.937  0.2615  0.4230 -0.1338
  741EMI    H1'14070   1.747   3.372   1.044  1.6033 -1.1190  1.9216
  741EMI    H1'14071   1.808   3.420   0.892 -0.6595 -0.2226 -1.6392
  741EMI    H1'14072   1.637   3.432   0.918  0.9270  0.7148 -1.3871
  741EMI    C1"14073   1.722   2.866   0.892  0.2582  0.3057  0.8409
  741EMI    H1"14074   1.828   2.836   0.892  0.9228  0.2592  0.0604
  741EMI    H1"14075   1.673   2.817   0.811  1.2095  2.5982 -0.8609
  741EMI    C2"14076   1.661   2.825   1.029 -0.3770  0.6541 -0.4562
  741EMI    H2"14077   1.558   2.840   1.027  0.7371  0.6937  0.6314
  741EMI    H2"14078   1.674   2.725   1.063  1.3385  1.3863  2.7045
  741EMI    H2"14079   1.713   2.871   1.116  1.1258 -2.4672 -2.3397
  742EMI     N114080   6.633   0.882   2.964 -0.2026  0.3269 -0.4091
  742EMI     C214081   6.670   0.755   2.981  0.2451 -0.2561 -0.0333
  742EMI     N314082   6.593   0.677   2.902 -0.4148 -0.0892 -0.4266
  742EMI     C414083   6.522   0.760   2.821  0.3075 -0.0183 -0.9079
  742EMI     C514084   6.542   0.881   2.865 -0.1012 -0.3363 -0.8234
  742EMI     H214085   6.750   0.725   3.036 -1.6445 -1.8068 -3.9265
  742EMI     H414086   6.455   0.728   2.748 -0.0063  1.6704 -2.6486
  742EMI     H514087   6.491   0.970   2.827 -2.2517  0.5336  0.9853
  742EMI    C1'14088   6.568   0.530   2.897  0.2602  0.9727  0.0880
  742EMI    H1'14089   6.495   0.497   2.828 -1.0222 -0.8582  0.3725
  742EMI    H1'14090   6.660   0.478   2.879  3.8646 -1.1809 -1.1764
  742EMI    H1'14091   6.541   0.502   3.002 -0.5337 -1.0160  2.1096
  742EMI    C1"14092   6.681   1.013   3.022  0.3216 -0.0370  0.0740
  742EMI    H1"14093   6.624   1.043   3.109 -0.4964 -0.0454 -2.9450
  742EMI    H1"14094   6.664   1.084   2.945  0.8576 -3.6027  0.8262
  742EMI    C2"14095   6.830   1.007   3.059  0.5541  0.3816 -0.2560
  742EMI    H2"14096   6.896   1.011   2.971 -0.5398  2.4956  0.8980
  742EMI    H2"14097   6.849   1.090   3.129 -1.2966 -0.0408 -0.4540
  742EMI    H2"14098   6.848   0.920   3.124 -0.3921  0.2082 -0.6916
  743EMI     N114099   0.213   3.829   4.152 -0.4191 -0.1990  0.1852
  743EMI     C214100   0.079   3.864   4.156 -0.9161 -0.5559 -0.5106
  743EMI     N314101   0.048   3.943   4.054 -0.0750  0.2143  0.1480
  743EMI     C414102   0.162   3.959   3.980 -0.8493 -0.1290 -0.2579
  743EMI     C514103   0.265   3.886   4.035 -0.6188  0.2708  0.1682
  743EMI     H214104   0.015   3.832   4.233 -0.4693  1.1456  1.3311
  743EMI     H414105   0.155   4.021   3.893 -1.4068 -1.5589  1.1250
  743EMI     H514106   0.361   3.867   3.997 -2.1275  0.7317 -0.2442
  743EMI    C1'14107  -0.080   4.001   4.001  0.1848 -0.1199 -0.2061
  743EMI    H1'14108  -0.102   4.098   4.054  0.8415 -1.0870  0.9619
  743EMI    H1'14109  -0.078   4.017   3.893 -0.4263 -0.3538  0.6390
  743EMI    H1'14110  -0.153   3.927   4.021 -0.2703  1.2056 -1.1965
  743EMI    C1"14111   0.301   3.761   4.252 -0.2393  0.4422  0.6050
  743EMI    H1"14112   0.250   3.768   4.349  2.1073 -1.2252 -0.0274
  743EMI    H1"14113   0.396   3.811   4.268 -0.1401 -0.9718 -3.4003
  743EMI    C2"14114   0.311   3.606   4.223 -0.5388  0.3809 -0.6240
  743EMI    H2"14115   0.204   3.569   4.217 -1.4972  0.5429 -1.5571
  743EMI    H2"14116   0.375   3.594   4.142 -3.2194  0.4323  3.6864
  743EMI    H2"14117   0.364   3.563   4.310 -1.1788  0.1436  1.3493
  744EMI     N114118   0.573   0.130   1.164 -0.6688 -0.2423  0.1885
  744EMI     C214119   0.682   0.131   1.255 -0.1801  0.4243 -0.0133
  744EMI     N314120   0.665   0.222   1.350  0.2970  0.6666  0.0246
  744EMI     C414121   0.557   0.299   1.313  0.0847 -0.2394 -0.0706
  744EMI     C514122   0.503   0.241   1.199  0.4691  0.2112  0.1398
  744EMI     H214123   0.766   0.061   1.250 -0.8041  0.8963  0.7132
  744EMI     H414124   0.521   0.389   1.367  0.3359  1.8532 -3.3405
  744EMI     H514125   0.426   0.289   1.144  2.1388 -0.1337 -2.2086
  744EMI    C1'14126   0.762   0.262   1.461  0.5584  0.2869  0.4712
  744EMI    H1'14127   0.835   0.315   1.411 -0.6450 -0.1321  1.3981
  744EMI    H1'14128   0.707   0.320   1.531  2.5987 -0.5043  1.0289
  744EMI    H1'14129   0.804   0.162   1.496 -1.6297  1.8486 -1.9170
  744EMI    C1"14130   0.524   0.025   1.082 -0.6700  0.7251 -0.1603
  744EMI    H1"14131   0.433   0.063   1.032  0.9921  2.5617 -1.5495
  744EMI    H1"14132   0.501  -0.055   1.145 -0.8458  0.9998 -0.1001
  744EMI    C2"14133   0.617  -0.026   0.964  0.1295 -0.2100  0.8378
  744EMI    H2"14134   0.719  -0.045   0.995  1.4479 -0.8284  1.0704
  744EMI    H2"14135   0.584  -0.116   0.915 -0.7183  0.7214  2.5623
  744EMI    H2"14136   0.629   0.059   0.893 -1.1922 -0.8913  0.1286
  745EMI     N114137   2.536   5.541   2.828  0.0523 -0.3388 -0.7200
  745EMI     C214138   2.653   5.601   2.859 -0.8980  0.2648  0.2359
  745EMI     N314139   2.737   5.585   2.752  0.3951  0.3092  0.0203
  745EMI     C414140   2.670   5.495   2.665 -0.2694 -1.0369 -0.2232
  745EMI     C514141   2.543   5.472   2.710  0.6243 -0.2489  0.3587
  745EMI     H214142   2.686   5.659   2.949  0.6862 -1.2966 -1.5185
  745EMI     H414143   2.693   5.463   2.563 -2.9255 -2.1817 -1.3258
  745EMI     H514144   2.467   5.411   2.668  0.9925 -2.8007  2.3419
  745EMI    C1'14145   2.877   5.614   2.733  0.9355 -0.5931  0.0741
  745EMI    H1'14146   2.877   5.725   2.733 -1.6183  2.0343 -2.1982
  745EMI    H1'14147   2.940   5.560   2.804 -1.6288  1.8657 -2.1077
  745EMI    H1'14148   2.891   5.582   2.628  0.0002 -0.3477 -0.4702
  745EMI    C1"14149   2.418   5.547   2.912 -0.3914 -0.3029 -0.2658
  745EMI    H1"14150   2.456   5.535   3.019 -1.1095 -0.5701 -2.6023
  745EMI    H1"14151   2.358   5.461   2.883 -0.0549  1.3934  2.3950
  745EMI    C2"14152   2.334   5.674   2.886 -0.1148  0.2022  0.0267
  745EMI    H2"14153   2.287   5.678   2.785 -0.1274 -1.0426 -1.0307
  745EMI    H2"14154   2.256   5.676   2.956 -1.2690 -1.8575 -0.1496
  745EMI    H2"14155   2.396   5.759   2.892  1.6067 -0.4669  1.9414
  746EMI     N114156   3.015   1.173   1.353  0.2788 -0.1387  0.9721
  746EMI     C214157   3.038   1.091   1.247  0.0615  0.9204 -0.5473
  746EMI     N314158   3.034   1.158   1.134  0.5716 -0.7189  0.2742
  746EMI     C414159   3.009   1.291   1.167  0.5454  0.0109  0.5199
  746EMI     C514160   2.998   1.298   1.303  0.3681 -0.0651 -0.1447
  746EMI     H214161   3.077   0.990   1.247 -0.8081  0.7664 -0.9364
  746EMI     H414162   3.009   1.376   1.103 -0.6042 -2.5627  1.4789
  746EMI     H514163   2.995   1.396   1.347 -1.8971 -0.1603  0.9945
  746EMI    C1'14164   3.074   1.111   0.999 -0.0207  0.1631 -0.6295
  746EMI    H1'14165   3.150   1.040   1.015  1.5150 -3.1589 -0.0421
  746EMI    H1'14166   2.997   1.063   0.941  1.0661 -0.8822 -0.1187
  746EMI    H1'14167   3.119   1.203   0.951 -1.7688  1.4738  1.2618
  746EMI    C1"14168   3.022   1.146   1.496 -1.3606 -0.4419  1.1378
  746EMI    H1"14169   3.068   1.229   1.552 -0.8596  0.1867  0.6591
  746EMI    H1"14170   3.095   1.067   1.519  0.6256  2.0169 -1.7494
  746EMI    C2"14171   2.891   1.116   1.571 -0.5668 -0.3006 -0.0332
  746EMI    H2"14172   2.838   1.044   1.515 -1.4751  2.1855  1.3679
  746EMI    H2"14173   2.918   1.073   1.669  1.2133 -2.9521 -0.5137
  746EMI    H2"14174   2.825   1.200   1.584  0.1622 -1.0470 -0.2984
  747EMI     N114175   2.397   4.156   6.097 -0.0627 -0.1927  0.1212
  747EMI     C214176   2.360   4.100   6.208 -0.0143  0.4933 -0.4971
  747EMI     N314177   2.386   4.187   6.309  0.4706 -0.3895 -0.7024
  747EMI     C414178   2.448   4.302   6.253 -0.6965 -0.0067 -0.3884
  747EMI     C514179   2.463   4.279   6.123 -0.1272 -0.4970 -0.1340
  747EMI     H214180   2.309   4.005   6.217  1.7885 -1.9601  0.1314
  747EMI     H414181   2.482   4.394   6.297  3.5383 -0.8046  1.3179
  747EMI     H514182   2.493   4.352   6.050 -1.2094 -1.3751  0.6483
  747EMI    C1'14183   2.376   4.160   6.458 -0.2702 -0.1420 -0.0872
  747EMI    H1'14184   2.482   4.142   6.481  1.7568  0.1141  2.0619
  747EMI    H1'14185   2.337   4.249   6.515  0.0040  0.4446  0.5945
  747EMI    H1'14186   2.323   4.070   6.482  0.1757  1.8311  0.6938
  747EMI    C1"14187   2.411   4.087   5.967  0.0736  0.0641 -0.1203
  747EMI    H1"14188   2.482   4.006   5.984 -0.7898  1.6542  3.1526
  747EMI    H1"14189   2.443   4.158   5.890  2.1724 -0.3723  1.8849
  747EMI    C2"14190   2.281   4.024   5.922 -0.5638  0.7347  0.4896
  747EMI    H2"14191   2.301   3.957   5.839 -1.2042  1.1871  0.4661
  747EMI    H2"14192   2.248   3.951   5.993  1.4247 -0.7180 -0.7089
  747EMI    H2"14193   2.213   4.093   5.883  2.6667 -1.4485  3.4685
  748EMI     N114194   3.174   2.825   5.412  0.4278  0.2721  0.3371
  748EMI     C214195   3.079   2.750   5.351 -0.5551  0.2932  0.5119
  748EMI     N314196   2.956   2.804   5.381 -0.4952  0.1050 -0.7249
  748EMI     C414197   2.974   2.908   5.464  0.4511  0.3287 -0.5512
  748EMI     C514198   3.106   2.925   5.479 -0.2140  0.2982 -0.1224
  748EMI     H214199   3.101   2.662   5.296 -0.8862  2.2580  0.7576
  748EMI     H414200   2.896   2.963   5.515 -0.4881 -2.8651  0.2932
  748EMI     H514201   3.159   3.011   5.531 -0.7144 -1.2551 -3.5486
  748EMI    C1'14202   2.822   2.757   5.335 -0.8272 -0.2553 -0.2319
  748EMI    H1'14203   2.766   2.723   5.423  2.4941 -0.6682 -0.1020
  748EMI    H1'14204   2.768   2.840   5.290 -0.8276  0.2818  3.7199
  748EMI    H1'14205   2.842   2.687   5.260 -0.6234  2.5266 -0.9299
  748EMI    C1"14206   3.319   2.838   5.394  0.1325  0.1082 -0.1647
  748EMI    H1"14207   3.348   2.905   5.471 -1.3432 -0.9452 -0.7484
  748EMI    H1"14208   3.332   2.887   5.299 -0.4477 -0.4899 -1.0685
  748EMI    C2"14209   3.391   2.709   5.403  0.2997 -0.6219  0.0998
  748EMI    H2"14210   3.357   2.637   5.328  1.4850 -0.6148  0.5770
  748EMI    H2"14211   3.496   2.729   5.420  0.0031 -1.1680  1.2827
  748EMI    H2"14212   3.355   2.662   5.499 -1.2094 -2.2041  1.2024
  749EMI     N114213   3.728   5.229   1.759 -0.1491 -0.4923  0.7081
  749EMI     C214214   3.840   5.296   1.769 -0.8163 -0.4678  0.0251
  749EMI     N314215   3.880   5.333   1.643  0.0069 -0.5964 -0.2257
  749EMI     C414216   3.772   5.313   1.560 -0.3023 -0.1885  0.5248
  749EMI     C514217   3.671   5.263   1.637 -0.2934  0.1143  0.0747
  749EMI     H214218   3.909   5.288   1.852  0.3606  0.5431 -0.7469
  749EMI     H414219   3.775   5.347   1.458 -1.4700 -1.1220  0.8798
  749EMI     H514220   3.564   5.240   1.615 -0.3025 -0.8642 -0.9498
  749EMI    C1'14221   4.004   5.393   1.587 -0.2458 -0.5466  0.7209
  749EMI    H1'14222   4.046   5.333   1.506 -1.7225 -1.5906 -2.1913
  749EMI    H1'14223   3.988   5.497   1.553  0.3627  0.0129 -0.2808
  749EMI    H1'14224   4.081   5.402   1.666 -1.6394  1.1390 -2.7257
  749EMI    C1"14225   3.650   5.159   1.863 -0.6864  0.1945  0.8195
  749EMI    H1"14226   3.712   5.133   1.947 -1.6024 -0.4605 -0.0386
  749EMI    H1"14227   3.600   5.072   1.822 -3.3041  2.3229  0.5648
  749EMI    C2"14228   3.535   5.245   1.918  0.3553  1.0167 -0.5176
  749EMI    H2"14229   3.487   5.189   2.007  0.1959  0.8135  0.5204
  749EMI    H2"14230   3.580   5.341   1.954  1.1204 -0.0377 -0.7581
  749EMI    H2"14231   3.463   5.271   1.849  1.1230 -0.1345 -2.7922
  750EMI     N114232   0.535   6.814   6.472 -0.3020 -0.8563  0.3684
  750EMI     C214233   0.528   6.803   6.339 -0.3160 -0.2647  0.4477
  750EMI     N314234   0.629   6.724   6.296  0.5427 -0.3795  0.6434
  750EMI     C414235   0.679   6.665   6.409  0.6142  0.0283  1.0125
  750EMI     C514236   0.629   6.726   6.521  0.1145  1.5240  0.1392
  750EMI     H214237   0.453   6.865   6.277 -4.6623  1.8201 -0.5053
  750EMI     H414238   0.763   6.595   6.411  1.4457  2.0093  0.4587
  750EMI     H514239   0.666   6.706   6.619 -0.5686  2.5517 -2.4585
  750EMI    C1'14240   0.657   6.677   6.164  0.0299  0.1253 -0.0999
  750EMI    H1'14241   0.736   6.611   6.158 -1.6017 -2.1448  1.3507
  750EMI    H1'14242   0.565   6.617   6.130 -3.5198  1.2928 -1.8076
  750EMI    H1'14243   0.674   6.766   6.096  1.3773  3.4254 -0.8169
  750EMI    C1"14244   0.448   6.889   6.565 -0.0334 -0.1578 -0.7739
  750EMI    H1"14245   0.445   6.840   6.660  1.7651 -1.3328  0.4423
  750EMI    H1"14246   0.351   6.897   6.516  1.3815  2.0357  0.7703
  750EMI    C2"14247   0.505   7.026   6.586  0.2858  0.0716 -0.0435
  750EMI    H2"14248   0.513   7.076   6.491  2.8086 -2.4925 -0.6862
  750EMI    H2"14249   0.435   7.087   6.645 -0.1148 -0.6927 -0.1227
  750EMI    H2"14250   0.599   7.021   6.640 -0.4379  2.7875  1.2544
  751EMI     N114251   3.689   3.445   5.060  0.7991 -0.8041  0.2383
  751EMI     C214252   3.718   3.575   5.029 -0.1311  0.2670 -0.3773
  751EMI     N314253   3.800   3.580   4.927 -0.4123  0.9065 -0.6392
  751EMI     C414254   3.814   3.454   4.881 -0.2671  0.2167 -0.1294
  751EMI     C514255   3.746   3.371   4.960 -0.0688 -0.2114 -0.2060
  751EMI     H214256   3.675   3.665   5.081 -1.3730  3.6651 -1.0728
  751EMI     H414257   3.880   3.423   4.803  1.4035 -0.4310  2.1742
  751EMI     H514258   3.739   3.265   4.957  0.1976  0.3231 -1.4934
  751EMI    C1'14259   3.874   3.692   4.869  0.2349  0.4698  1.0994
  751EMI    H1'14260   3.810   3.756   4.806 -0.4890  0.9419  2.4366
  751EMI    H1'14261   3.926   3.749   4.943 -1.1399  0.8804 -0.3285
  751EMI    H1'14262   3.945   3.654   4.793  0.7430  0.8859 -1.2580
  751EMI    C1"14263   3.616   3.381   5.177 -0.2347  0.3140  0.3699
  751EMI    H1"14264   3.633   3.271   5.185 -0.5425  1.8219  1.2054
  751EMI    H1"14265   3.514   3.408   5.180  1.4204  2.4649  0.2056
  751EMI    C2"14266   3.669   3.437   5.313 -0.3149  0.7211  0.6829
  751EMI    H2"14267   3.618   3.379   5.393  0.6929 -0.6919  1.1920
  751EMI    H2"14268   3.774   3.417   5.330 -1.1435  0.5878  0.5299
  751EMI    H2"14269   3.644   3.539   5.342  4.2440 -0.9009 -0.7745
  752EMI     N114270   2.250   0.251   0.179  0.5749 -0.0078  0.1580
  752EMI     C214271   2.131   0.192   0.163 -0.2288  0.8890  0.5299
  752EMI     N314272   2.146   0.073   0.094  0.3446 -0.5117 -0.1155
  752EMI     C414273   2.284   0.067   0.063  0.3811  0.1071  0.4672
  752EMI     C514274   2.345   0.168   0.126 -0.4273  1.0904 -0.7714
  752EMI     H214275   2.031   0.224   0.196 -1.7836  3.0080  0.4233
  752EMI     H414276   2.337  -0.016   0.016 -0.4589  1.7583 -1.1987
  752EMI     H514277   2.453   0.192   0.124 -3.0816 -0.0242  1.5592
  752EMI    C1'14278   2.052  -0.031   0.063  0.8880  0.4190  0.8005
  752EMI    H1'14279   2.036  -0.036  -0.046 -0.2731  3.0151 -1.7058
  752EMI    H1'14280   2.089  -0.130   0.084  0.3418 -2.0663  0.0864
  752EMI    H1'14281   1.957  -0.021   0.117 -0.7119 -0.3173 -2.3667
  752EMI    C1"14282   2.282   0.369   0.252  0.3810 -0.5369 -0.4146
  752EMI    H1"14283   2.201   0.429   0.246  2.6505 -1.4687  2.3693
  752EMI    H1"14284   2.379   0.418   0.211  3.6520  2.1367 -0.0238
  752EMI    C2"14285   2.286   0.339   0.404  0.0983 -0.4344  0.4801
  752EMI    H2"14286   2.337   0.425   0.449  0.9697 -1.5985 -1.0359
  752EMI    H2"14287   2.188   0.310   0.433 -0.3938 -3.1510  0.1332
  752EMI    H2"14288   2.352   0.252   0.403 -1.0492  1.2226 -0.8860
  753EMI     N114289   2.504   2.588   6.724 -0.8332 -0.6749 -0.3121
  753EMI     C214290   2.605   2.561   6.806  0.1384 -0.0165 -0.3305
  753EMI     N314291   2.568   2.524   6.928 -0.3716 -0.2157  0.1180
  753EMI     C414292   2.432   2.531   6.926  0.1419 -0.0976  0.9119
  753EMI     C514293   2.391   2.561   6.800  0.2938 -0.0756  0.0312
  753EMI     H214294   2.702   2.561   6.765 -0.6304 -2.2264 -0.6044
  753EMI     H414295   2.377   2.516   7.015  2.3336 -0.6457 -0.9937
  753EMI     H514296   2.289   2.570   6.766  1.0665  1.6838  0.0634
  753EMI    C1'14297   2.653   2.491   7.043  0.2498  0.2276 -0.3633
  753EMI    H1'14298   2.744   2.448   7.008 -0.9913  1.2862  0.1200
  753EMI    H1'14299   2.672   2.581   7.102 -1.9908  2.0599 -1.3209
  753EMI    H1'14300   2.610   2.415   7.109  3.3505 -0.1526  3.8967
  753EMI    C1"14301   2.510   2.651   6.592  0.4040 -0.6891 -0.1986
  753EMI    H1"14302   2.602   2.706   6.576 -1.5564 -0.3577 -1.7745
  753EMI    H1"14303   2.423   2.716   6.583  1.8764 -1.4564  0.3904
  753EMI    C2"14304   2.506   2.548   6.478 -0.5824  0.1804  0.2208
  753EMI    H2"14305   2.436   2.467   6.495 -1.0708  0.1452  0.6706
  753EMI    H2"14306   2.479   2.600   6.384  1.6251  0.7254 -1.8807
  753EMI    H2"14307   2.607   2.510   6.463  2.6667  1.5179 -0.6837
  754EMI     N114308   0.589   6.776   4.367 -0.1504  0.0071  0.3176
  754EMI     C214309   0.599   6.751   4.501  0.8393 -0.9672 -0.5440
  754EMI     N314310   0.728   6.746   4.532 -0.0569  0.1413  0.2326
  754EMI     C414311   0.801   6.761   4.415 -0.4382  0.0082  0.6102
  754EMI     C514312   0.719   6.766   4.313  0.5987  0.5325  0.6500
  754EMI     H214313   0.516   6.738   4.575  1.4070  1.2249  2.1091
  754EMI     H414314   0.912   6.755   4.399  0.0095  1.5660 -0.1914
  754EMI     H514315   0.741   6.766   4.208 -1.3548  0.8247 -1.3890
  754EMI    C1'14316   0.793   6.724   4.659  0.4205  0.3047  0.0916
  754EMI    H1'14317   0.770   6.628   4.699  0.4965 -0.7282 -1.5368
  754EMI    H1'14318   0.896   6.739   4.653 -0.7949 -2.0202  2.1645
  754EMI    H1'14319   0.760   6.791   4.734  1.0348 -1.2111  0.5122
  754EMI    C1"14320   0.466   6.787   4.286 -0.1190  0.3263 -0.4705
  754EMI    H1"14321   0.480   6.804   4.180  1.2832  2.3070  2.3798
  754EMI    H1"14322   0.414   6.874   4.333 -1.5685 -0.4223  0.2856
  754EMI    C2"14323   0.381   6.662   4.305 -0.0628 -0.0268 -0.4362
  754EMI    H2"14324   0.435   6.573   4.268  3.5892 -0.6891 -0.0552
  754EMI    H2"14325   0.348   6.645   4.407 -0.1451  0.2596  0.0794
  754EMI    H2"14326   0.285   6.678   4.245 -2.4975  0.4564 -0.1410
  755EMI     N114327   0.765   0.790   0.824 -0.1969 -0.0048 -0.6452
  755EMI     C214328   0.756   0.692   0.917  0.0648 -0.7717  0.0267
  755EMI     N314329   0.639   0.630   0.904  0.8450  0.0190 -0.2183
  755EMI     C414330   0.560   0.714   0.825 -0.0561  0.7624  0.8620
  755EMI     C514331   0.641   0.813   0.772  0.0844 -0.0939  0.5803
  755EMI     H214332   0.839   0.655   0.969  1.0164  0.8985 -2.1273
  755EMI     H414333   0.455   0.700   0.796  0.2006  0.4235  1.7734
  755EMI     H514334   0.608   0.886   0.703  1.1678  0.9595  0.5510
  755EMI    C1'14335   0.582   0.511   0.966  0.0887 -0.5228  0.6529
  755EMI    H1'14336   0.633   0.481   1.057 -0.6015  0.9264 -1.8183
  755EMI    H1'14337   0.476   0.512   0.977  1.3820  2.2880  0.0465
  755EMI    H1'14338   0.606   0.433   0.897  0.1264  2.0987 -0.7621
  755EMI    C1"14339   0.888   0.868   0.796 -0.0093  0.0771  0.0284
  755EMI    H1"14340   0.979   0.811   0.810 -0.9153 -1.9431  3.7287
  755EMI    H1"14341   0.884   0.952   0.868  0.3394 -0.6727 -1.3960
  755EMI    C2"14342   0.892   0.928   0.659 -0.1553 -0.3397  0.4274
  755EMI    H2"14343   0.902   0.837   0.600 -0.5824 -2.2689  0.0910
  755EMI    H2"14344   0.804   0.985   0.624  0.9785  2.8921 -0.1337
  755EMI    H2"14345   0.981   0.990   0.661 -0.6456 -2.9018 -0.0077
  756EMI     N114346   2.766   1.219   0.432  0.9412  0.5606 -0.3812
  756EMI     C214347   2.705   1.120   0.494  0.0565  0.4432 -0.4512
  756EMI     N314348   2.774   1.082   0.608 -0.0693  0.5495 -0.2009
  756EMI     C414349   2.878   1.172   0.615 -0.3911 -0.7147  0.0897
  756EMI     C514350   2.869   1.263   0.513 -0.1238 -0.0283 -0.0336
  756EMI     H214351   2.616   1.068   0.464 -0.4370  0.0166 -0.0968
  756EMI     H414352   2.945   1.189   0.700 -1.0352 -1.9135 -0.5100
  756EMI     H514353   2.933   1.349   0.503  1.2708  1.0231 -2.3133
  756EMI    C1'14354   2.755   0.983   0.707  0.6647  0.1129 -0.0846
  756EMI    H1'14355   2.654   0.943   0.696  0.3936  4.4446 -2.0660
  756EMI    H1'14356   2.834   0.909   0.710 -1.1826  1.2079  2.6205
  756EMI    H1'14357   2.762   1.030   0.812  1.8830 -1.5447  1.2921
  756EMI    C1"14358   2.741   1.269   0.300  0.7514  0.4244  0.4454
  756EMI    H1"14359   2.715   1.374   0.289 -1.1121 -1.3281  0.1531
  756EMI    H1"14360   2.655   1.208   0.257  1.8349 -0.6962  3.5321
  756EMI    C2"14361   2.868   1.234   0.220  0.1607 -0.5409  0.0534
  756EMI    H2"14362   2.846   1.245   0.113 -0.8156  2.8129 -1.8191
  756EMI    H2"14363   2.946   1.308   0.250 -1.3034 -1.5422 -0.2900
  756EMI    H2"14364   2.906   1.133   0.225 -0.6088 -1.7204 -0.3073
  757EMI     N114365   1.348   5.206   6.709 -0.4596 -0.2642 -0.6254
  757EMI     C214366   1.280   5.124   6.629 -0.2293 -0.7415  0.2977
  757EMI     N314367   1.318   5.156   6.498  0.0819 -0.3010 -0.2616
  757EMI     C414368   1.422   5.242   6.501 -0.0526 -0.4335 -0.0953
  757EMI     C514369   1.439   5.270   6.636 -0.1555  0.2871  0.0056
  757EMI     H214370   1.205   5.050   6.656 -2.2307 -1.7297 -1.7702
  757EMI     H414371   1.480   5.282   6.418  2.4022  0.0186 -0.2519
  757EMI     H514372   1.499   5.345   6.675 -3.4445 -4.7077 -0.0777
  757EMI    C1'14373   1.271   5.115   6.365 -0.2748  0.3856 -0.2790
  757EMI    H1'14374   1.290   5.006   6.358 -1.5919 -1.7852  1.0703
  757EMI    H1'14375   1.163   5.143   6.356  2.0925 -1.3420 -0.1575
  757EMI    H1'14376   1.319   5.168   6.277 -0.7653  0.0634 -1.4005
  757EMI    C1"14377   1.341   5.230   6.850 -0.1127  0.4250 -0.2466
  757EMI    H1"14378   1.236   5.227   6.870 -1.3839  1.4239  1.2662
  757EMI    H1"14379   1.385   5.323   6.875  1.4492 -1.3119  2.0516
  757EMI    C2"14380   1.399   5.118   6.928  0.1678 -0.8718 -0.3174
  757EMI    H2"14381   1.327   5.027   6.919 -1.8883 -0.4684 -1.7136
  757EMI    H2"14382   1.500   5.098   6.912  0.2484  0.0928 -0.5678
  757EMI    H2"14383   1.387   5.146   7.030  1.1632  2.2125 -2.1322
  758EMI     N114384   0.456   2.791   0.272  0.0725 -0.2395 -0.4685
  758EMI     C214385   0.352   2.827   0.197 -0.4947 -0.1704  0.5581
  758EMI     N314386   0.296   2.721   0.141  0.1875 -0.2661  0.1066
  758EMI     C414387   0.373   2.615   0.174 -0.1727 -0.0771  0.8114
  758EMI     C514388   0.470   2.657   0.255 -0.2979  0.1206 -0.2341
  758EMI     H214389   0.318   2.924   0.187  0.1319 -1.4751  2.0700
  758EMI     H414390   0.346   2.513   0.142 -3.0150 -1.6676  1.6012
  758EMI     H514391   0.551   2.591   0.289  2.6799 -1.1914  1.3772
  758EMI    C1'14392   0.199   2.701   0.033  0.1361 -0.3093  0.2353
  758EMI    H1'14393   0.149   2.798   0.004  0.3951  0.5990  2.0926
  758EMI    H1'14394   0.244   2.663  -0.065 -0.2213  1.0405  0.6444
  758EMI    H1'14395   0.124   2.641   0.083 -4.0760  3.3284 -0.7856
  758EMI    C1"14396   0.541   2.869   0.367  0.3717 -1.1482  0.0401
  758EMI    H1"14397   0.563   2.960   0.319  0.3470 -3.4429  1.0955
  758EMI    H1"14398   0.641   2.818   0.389  1.9486  0.8149  0.9084
  758EMI    C2"14399   0.466   2.895   0.505 -0.7474  0.9275  0.0783
  758EMI    H2"14400   0.391   2.972   0.486 -1.2382 -1.5713  1.1981
  758EMI    H2"14401   0.424   2.802   0.551  2.5253  2.3065  3.3779
  758EMI    H2"14402   0.537   2.927   0.580 -0.2622 -0.7139 -1.6489
  759EMI     N114403   5.251   3.042   3.373 -0.1297  0.2777 -0.4842
  759EMI     C214404   5.280   2.914   3.390  0.7478 -0.0918 -0.0632
  759EMI     N314405   5.204   2.860   3.486  0.3942  0.1813 -0.1681
  759EMI     C414406   5.115   2.946   3.532 -0.1707 -0.1914 -1.2890
  759EMI     C514407   5.145   3.057   3.457 -0.1537  0.4691 -0.3295
  759EMI     H214408   5.360   2.857   3.344  0.7918 -0.7363  0.3223
  759EMI     H414409   5.040   2.932   3.608 -3.9143 -1.2291 -1.2783
  759EMI     H514410   5.089   3.153   3.476  1.9584 -0.4540  1.8757
  759EMI    C1'14411   5.208   2.725   3.543  0.2337  1.1155 -0.1471
  759EMI    H1'14412   5.106   2.706   3.567 -0.9670  0.8856 -1.0328
  759EMI    H1'14413   5.246   2.654   3.472 -0.3372  0.3986 -1.8263
  759EMI    H1'14414   5.262   2.724   3.634  0.2899  1.4987  1.2494
  759EMI    C1"14415   5.292   3.151   3.288 -0.0670  0.1114  0.4196
  759EMI    H1"14416   5.390   3.187   3.317  0.3548  1.1425 -1.0513
  759EMI    H1"14417   5.231   3.239   3.314  0.1754  0.5611  0.0817
  759EMI    C2"14418   5.284   3.131   3.135  0.3622 -0.3039 -0.4128
  759EMI    H2"14419   5.186   3.117   3.102 -1.7238 -0.2460 -2.3333
  759EMI    H2"14420   5.318   3.217   3.082 -1.3417  0.8552  0.8790
  759EMI    H2"14421   5.334   3.044   3.097  0.9185 -0.6788 -0.0957
  760EMI     N114422   5.698   3.340   0.396  0.4801  0.3616 -0.1080
  760EMI     C214423   5.663   3.439   0.316  0.2393  0.0694 -0.2493
  760EMI     N314424   5.638   3.545   0.388  0.5943  0.9601  0.5143
  760EMI     C414425   5.672   3.517   0.521 -0.4661 -0.3882  0.6487
  760EMI     C514426   5.711   3.391   0.522  0.0655  0.6002  0.4074
  760EMI     H214427   5.677   3.439   0.210 -3.5062 -0.4707 -0.6927
  760EMI     H414428   5.668   3.581   0.604 -1.6242 -1.3981 -2.9223
  760EMI     H514429   5.739   3.327   0.607  2.1291 -0.8699  1.9894
  760EMI    C1'14430   5.609   3.682   0.340  0.5828  0.5395  0.2570
  760EMI    H1'14431   5.706   3.712   0.316 -0.7679  0.0422  0.1697
  760EMI    H1'14432   5.554   3.673   0.250 -3.4110 -2.1652  3.1072
  760EMI    H1'14433   5.563   3.762   0.408  1.8888  4.5085 -0.0839
  760EMI    C1"14434   5.730   3.199   0.365  0.2559 -0.8220  0.2986
  760EMI    H1"14435   5.653   3.153   0.300 -0.0457  0.6631 -2.4097
  760EMI    H1"14436   5.720   3.142   0.457  0.7728  1.6706 -1.6750
  760EMI    C2"14437   5.869   3.178   0.314 -0.3602 -0.0709 -0.1736
  760EMI    H2"14438   5.879   3.236   0.229 -1.8122  1.9915  2.5549
  760EMI    H2"14439   5.933   3.222   0.384  1.2137  1.4302 -1.5979
  760EMI    H2"14440   5.898   3.071   0.314  0.6951 -2.0444 -0.0514
  761EMI     N114441   0.293   4.432   5.635  0.3253 -0.6686  0.5201
  761EMI     C214442   0.417   4.390   5.609 -0.3740 -0.3572 -0.1552
  761EMI     N314443   0.502   4.494   5.632 -0.6173 -0.7007 -0.0609
  761EMI     C414444   0.428   4.601   5.673 -0.1151  0.0559 -0.1228
  761EMI     C514445   0.297   4.569   5.676  0.0536  0.0960  0.2242
  761EMI     H214446   0.442   4.285   5.588 -0.4943  1.8334  0.2579
  761EMI     H414447   0.478   4.694   5.690  2.1482  1.4288 -1.0441
  761EMI     H514448   0.208   4.626   5.711 -0.4208 -0.8697  2.3152
  761EMI    C1'14449   0.647   4.498   5.651 -0.2106  0.6440  0.1414
  761EMI    H1'14450   0.690   4.469   5.552 -1.8638  0.1203 -0.1892
  761EMI    H1'14451   0.679   4.597   5.687 -1.7702 -3.3318  0.9504
  761EMI    H1'14452   0.667   4.416   5.726 -0.2047  0.2572 -1.1868
  761EMI    C1"14453   0.171   4.351   5.639  0.4284 -0.5680  0.0574
  761EMI    H1"14454   0.103   4.397   5.720 -2.4719  0.4843  0.2896
  761EMI    H1"14455   0.197   4.247   5.657 -1.3888  1.8296  2.4220
  761EMI    C2"14456   0.091   4.358   5.510 -0.3967 -0.4485  0.0899
  761EMI    H2"14457   0.005   4.290   5.522 -1.7163  0.6033 -2.8880
  761EMI    H2"14458   0.060   4.463   5.486  2.2249  1.7154 -0.6813
  761EMI    H2"14459   0.149   4.318   5.433  0.5275  0.0303  0.5732
  762EMI     N114460   6.804   4.678   3.666  0.4604 -0.0266 -0.3590
  762EMI     C214461   6.880   4.785   3.663  0.2168  0.4705  0.2859
  762EMI     N314462   6.943   4.792   3.544 -0.2605  1.0835 -0.2828
  762EMI     C414463   6.902   4.680   3.474  0.7797  0.0726 -0.5427
  762EMI     C514464   6.811   4.610   3.546  0.1564  0.0710  0.5571
  762EMI     H214465   6.882   4.870   3.736  0.5194 -0.1554 -1.2655
  762EMI     H414466   6.942   4.661   3.377 -2.8162 -0.4346  2.1806
  762EMI     H514467   6.745   4.527   3.522  1.7341  0.9209  1.1283
  762EMI    C1'14468   7.027   4.898   3.488  0.1298 -0.4107  1.3469
  762EMI    H1'14469   6.993   4.993   3.518 -1.8701 -4.6178 -2.1079
  762EMI    H1'14470   7.123   4.891   3.541  1.6096 -2.2097  0.0458
  762EMI    H1'14471   7.040   4.880   3.379  0.7577  0.4987 -1.4903
  762EMI    C1"14472   6.713   4.625   3.776 -0.1504 -0.4176 -0.7284
  762EMI    H1"14473   6.673   4.522   3.747  0.9977  2.1016 -2.1348
  762EMI    H1"14474   6.632   4.696   3.797 -0.6376  0.1113 -1.8920
  762EMI    C2"14475   6.784   4.617   3.906 -0.6030  0.5058  0.0954
  762EMI    H2"14476   6.874   4.572   3.887 -1.9682  2.0006 -3.3727
  762EMI    H2"14477   6.795   4.715   3.951  0.7528  2.6564  0.2745
  762EMI    H2"14478   6.720   4.555   3.972 -2.4544  0.1966 -0.8273
  763EMI     N114479   2.784   0.304   6.170 -0.2729  0.4926  1.0486
  763EMI     C214480   2.693   0.390   6.124  0.4637  0.1527 -0.3756
  763EMI     N314481   2.734   0.518   6.158 -0.2689 -0.3598 -0.4310
  763EMI     C414482   2.855   0.513   6.226 -0.3184  0.6939  0.4870
  763EMI     C514483   2.882   0.384   6.230  0.3902  0.5510 -0.6866
  763EMI     H214484   2.619   0.367   6.056 -0.1059  1.0346  2.0895
  763EMI     H414485   2.924   0.593   6.255 -3.2618 -1.7090 -0.9426
  763EMI     H514486   2.973   0.345   6.280  1.1571  1.4056 -0.1330
  763EMI    C1'14487   2.663   0.646   6.141  0.2662 -0.0104 -0.1172
  763EMI    H1'14488   2.666   0.681   6.038 -0.4713  1.9962  1.6916
  763EMI    H1'14489   2.556   0.627   6.156 -1.7679 -0.6781  1.6986
  763EMI    H1'14490   2.681   0.719   6.217 -0.1690 -3.3100  0.9431
  763EMI    C1"14491   2.792   0.157   6.147  0.0763  0.8607 -0.2421
  763EMI    H1"14492   2.862   0.120   6.220  0.2530 -2.9684  2.5000
  763EMI    H1"14493   2.829   0.145   6.044  0.9276  0.0692 -1.8404
  763EMI    C2"14494   2.652   0.091   6.175 -0.4820 -0.2606 -0.0027
  763EMI    H2"14495   2.653  -0.019   6.154  2.2800  2.4333 -0.6587
  763EMI    H2"14496   2.632   0.095   6.279  1.0204 -2.6962  0.4197
  763EMI    H2"14497   2.573   0.135   6.118 -0.2453  0.2694  1.2679
  764EMI     N114498   3.015   5.546   5.813 -0.1746  0.0266 -0.0837
  764EMI     C214499   2.969   5.666   5.857  0.5556  0.2382  0.0866
  764EMI     N314500   3.007   5.694   5.979 -0.1184 -0.5665  0.2769
  764EMI     C414501   3.071   5.580   6.026 -0.4741 -0.0769  0.5021
  764EMI     C514502   3.082   5.494   5.920  0.3701  1.0977 -0.0459
  764EMI     H214503   2.922   5.732   5.786  0.3987 -2.3870  0.7412
  764EMI     H414504   3.103   5.557   6.130 -1.8973  2.5109  0.2629
  764EMI     H514505   3.120   5.390   5.928 -0.3251 -0.5827 -1.3063
  764EMI    C1'14506   2.975   5.811   6.063 -0.1467 -0.8842  0.2740
  764EMI    H1'14507   3.023   5.797   6.162  1.1149  1.7903  2.1032
  764EMI    H1'14508   3.004   5.908   6.026  0.8093 -0.5297  0.5556
  764EMI    H1'14509   2.865   5.827   6.089 -3.1988 -1.8982 -1.9658
  764EMI    C1"14510   3.024   5.471   5.683 -0.4392  0.0030  0.1200
  764EMI    H1"14511   2.951   5.514   5.604  0.0017  0.2350 -0.5826
  764EMI    H1"14512   3.000   5.362   5.693 -0.2174 -0.9793 -1.7388
  764EMI    C2"14513   3.168   5.477   5.623 -0.7334  0.1091  0.7336
  764EMI    H2"14514   3.227   5.396   5.666 -2.2195 -0.1067 -2.2239
  764EMI    H2"14515   3.160   5.445   5.514  0.8276  1.2303  0.3773
  764EMI    H2"14516   3.215   5.578   5.634 -1.2121 -3.0906  1.3330
  765EMI     N114517   3.898   1.374   3.130  0.2618 -0.0531 -0.4351
  765EMI     C214518   3.926   1.471   3.214 -0.4739 -0.2492  0.2599
  765EMI     N314519   3.913   1.435   3.344 -0.3610  0.4570  0.1522
  765EMI     C414520   3.881   1.301   3.338  0.6263  0.4382 -0.3208
  765EMI     C514521   3.873   1.261   3.207  0.5071  0.3412  0.0661
  765EMI     H214522   3.978   1.565   3.184  1.3350  2.5566 -1.6387
  765EMI     H414523   3.845   1.233   3.416  0.2966 -3.8205  1.4228
  765EMI     H514524   3.839   1.166   3.166 -0.9263  2.0122 -0.3990
  765EMI    C1'14525   3.952   1.501   3.472 -0.5118  0.0336 -0.1385
  765EMI    H1'14526   3.879   1.557   3.526  3.0307  0.0089 -0.6883
  765EMI    H1'14527   4.010   1.433   3.536 -0.3607  0.6518  2.5118
  765EMI    H1'14528   4.028   1.573   3.439 -0.5684  2.0340  0.8923
  765EMI    C1"14529   3.920   1.371   2.978 -0.3409  0.0011  0.5144
  765EMI    H1"14530   3.873   1.283   2.930 -0.3809  0.1477 -0.9788
  765EMI    H1"14531   4.030   1.364   2.952 -0.6716 -1.7139  1.8731
  765EMI    C2"14532   3.855   1.493   2.918  0.0178  0.4927  0.1940
  765EMI    H2"14533   3.740   1.481   2.921 -0.5469 -2.6253  1.8006
  765EMI    H2"14534   3.873   1.574   2.977 -2.7748  2.1545 -1.0581
  765EMI    H2"14535   3.895   1.498   2.816  1.3741  1.5128 -0.8027
  766EMI     N114536   0.363   1.739   3.140 -0.0464  0.3683 -0.3694
  766EMI     C214537   0.495   1.702   3.153 -0.2639  0.2292 -0.0424
  766EMI     N314538   0.560   1.778   3.246  1.1438 -0.1098  0.5592
  766EMI     C414539   0.464   1.866   3.286  0.4472  0.0865 -0.4112
  766EMI     C514540   0.344   1.841   3.228 -0.1247 -0.7330  0.3019
  766EMI     H214541   0.543   1.620   3.105  1.4351  0.1754  0.6401
  766EMI     H414542   0.488   1.940   3.355  1.8356 -1.5329 -0.5004
  766EMI     H514543   0.258   1.905   3.235  1.0618 -0.3426 -1.2395
  766EMI    C1'14544   0.698   1.790   3.295 -0.3293  0.8983 -0.1049
  766EMI    H1'14545   0.735   1.687   3.325  0.4948  0.7736  0.9930
  766EMI    H1'14546   0.746   1.846   3.211 -0.0251  1.1852 -2.7812
  766EMI    H1'14547   0.705   1.857   3.382 -0.7036 -0.8280 -2.7833
  766EMI    C1"14548   0.251   1.676   3.070 -0.0867 -0.6672  0.4022
  766EMI    H1"14549   0.158   1.708   3.113 -1.2686 -1.9394 -0.4494
  766EMI    H1"14550   0.267   1.567   3.079  3.3660 -3.3981 -2.7363
  766EMI    C2"14551   0.271   1.703   2.917  0.4737 -0.1196  0.2194
  766EMI    H2"14552   0.320   1.623   2.862  0.1768 -0.8163 -0.3972
  766EMI    H2"14553   0.175   1.717   2.875  0.0647  0.3787 -2.7923
  766EMI    H2"14554   0.318   1.797   2.894 -0.5543  2.3032 -0.7981
  767EMI     N114555   5.476   0.429   4.922  0.3377 -0.4253 -0.3335
  767EMI     C214556   5.402   0.487   5.019  0.1601 -0.6641  0.1615
  767EMI     N314557   5.435   0.615   5.047 -0.4031  0.2365 -0.6961
  767EMI     C414558   5.543   0.629   4.964  0.2348 -0.2796  0.0347
  767EMI     C514559   5.566   0.524   4.889  0.2267 -0.2137 -0.4497
  767EMI     H214560   5.330   0.430   5.074  0.0456  3.3220 -0.8100
  767EMI     H414561   5.604   0.720   4.952  0.9078  0.3286  2.3179
  767EMI     H514562   5.648   0.519   4.817  2.3022  0.0615 -1.3684
  767EMI    C1'14563   5.386   0.713   5.145 -0.3548 -0.3929  0.2280
  767EMI    H1'14564   5.392   0.670   5.247  0.7905  0.3812  0.8697
  767EMI    H1'14565   5.461   0.791   5.151  0.1509  1.0735  0.0688
  767EMI    H1'14566   5.279   0.735   5.122  0.5206  0.1067 -0.3545
  767EMI    C1"14567   5.479   0.292   4.879 -0.5947  0.5608 -0.4415
  767EMI    H1"14568   5.409   0.230   4.940 -0.1704 -0.0859 -0.2720
  767EMI    H1"14569   5.578   0.245   4.899 -0.2523 -1.4487 -1.9090
  767EMI    C2"14570   5.448   0.281   4.737 -0.1068 -0.3601  0.5023
  767EMI    H2"14571   5.430   0.172   4.724 -1.2780 -0.3816  0.3655
  767EMI    H2"14572   5.356   0.335   4.730  0.9709 -1.4014 -2.1860
  767EMI    H2"14573   5.527   0.329   4.679  0.7073 -0.7235 -2.0963
  768EMI     N114574   4.729   5.910   4.329  0.1599  0.3978 -0.4239
  768EMI     C214575   4.697   5.960   4.206  0.9457 -0.4386  0.6669
  768EMI     N314576   4.569   5.956   4.197 -0.5557  0.0157 -0.3810
  768EMI     C414577   4.517   5.922   4.318  0.8363 -1.0408 -0.5306
  768EMI     C514578   4.616   5.891   4.403 -0.2005  0.4055  0.3915
  768EMI     H214579   4.768   5.995   4.128  1.1731  2.1129  0.4166
  768EMI     H414580   4.412   5.906   4.331 -2.5820 -0.8784  0.0153
  768EMI     H514581   4.607   5.852   4.500 -1.1743  1.3168 -0.0815
  768EMI    C1'14582   4.478   5.984   4.087  0.1475  0.0669  0.5186
  768EMI    H1'14583   4.382   6.018   4.121  3.1477 -0.4421 -2.1749
  768EMI    H1'14584   4.523   6.060   4.031 -2.4710 -1.4751  0.2662
  768EMI    H1'14585   4.479   5.898   4.017  0.4395  1.7685 -2.3868
  768EMI    C1"14586   4.861   5.894   4.392  0.2612  0.2117  0.8392
  768EMI    H1"14587   4.930   5.832   4.329  0.0345  1.5316 -0.1407
  768EMI    H1"14588   4.851   5.845   4.482 -1.0683  2.0234 -0.0786
  768EMI    C2"14589   4.935   6.027   4.415  0.2025  0.5864 -0.1967
  768EMI    H2"14590   4.964   6.076   4.322 -1.6847 -1.8989 -0.6133
  768EMI    H2"14591   4.871   6.100   4.470  0.9395 -0.9864 -0.0741
  768EMI    H2"14592   5.031   6.003   4.465  0.0283  1.6683 -0.7037
  769EMI     N114593   1.386   2.287   5.462 -0.2753 -0.1925 -0.1218
  769EMI     C214594   1.263   2.244   5.427 -0.7664  0.0949 -0.7048
  769EMI     N314595   1.213   2.170   5.524 -0.6366 -0.2683 -0.4455
  769EMI     C414596   1.304   2.170   5.632 -0.3956  0.1808  0.3427
  769EMI     C514597   1.413   2.240   5.596  0.7786  0.2904  0.2886
  769EMI     H214598   1.211   2.264   5.328 -2.0211 -1.1314  3.5970
  769EMI     H414599   1.295   2.106   5.722 -0.2150 -0.5124  0.9380
  769EMI     H514600   1.506   2.245   5.644  1.2832 -1.5201 -0.9506
  769EMI    C1'14601   1.093   2.102   5.526 -0.2421  0.4085  0.7316
  769EMI    H1'14602   1.028   2.141   5.610 -1.3915  0.8923  1.7605
  769EMI    H1'14603   1.041   2.132   5.438  1.6884  2.4307  1.4644
  769EMI    H1'14604   1.108   1.995   5.536  2.1572  1.9403  0.1663
  769EMI    C1"14605   1.496   2.349   5.384 -0.3196 -0.4202  1.1155
  769EMI    H1"14606   1.488   2.314   5.281  1.4397  2.6612  0.6403
  769EMI    H1"14607   1.588   2.308   5.409  0.6137  0.4572 -0.9964
  769EMI    C2"14608   1.507   2.504   5.404 -0.5652  0.1529  0.4566
  769EMI    H2"14609   1.408   2.549   5.375 -1.2486  1.7632  1.1921
  769EMI    H2"14610   1.525   2.518   5.511 -2.0473 -2.6280  1.6914
  769EMI    H2"14611   1.580   2.549   5.336  1.9194  0.3727  0.5627
  770EMI     N114612   4.091   0.973   6.171  0.2574 -0.2303 -0.5309
  770EMI     C214613   4.093   1.022   6.043 -0.3577  0.7968  0.7302
  770EMI     N314614   4.012   0.955   5.953 -0.5557  0.0812 -0.3892
  770EMI     C414615   3.951   0.866   6.037 -0.7511 -0.9404  0.3412
  770EMI     C514616   4.002   0.868   6.158  0.0545 -0.0949 -0.8718
  770EMI     H214617   4.157   1.099   6.006  0.2753  0.4946 -2.0768
  770EMI     H414618   3.872   0.804   6.012 -0.6447  3.6552 -0.7771
  770EMI     H514619   3.975   0.806   6.241  0.4634 -0.0934  3.2199
  770EMI    C1'14620   4.000   0.972   5.809 -0.0832 -0.0115 -0.3810
  770EMI    H1'14621   4.048   1.064   5.773 -3.0861  0.2949  0.7614
  770EMI    H1'14622   4.057   0.892   5.773 -4.1096  0.7695 -1.1357
  770EMI    H1'14623   3.897   0.962   5.775 -0.6889  2.0626  0.1307
  770EMI    C1"14624   4.144   1.028   6.299 -0.3583 -0.0246 -0.3589
  770EMI    H1"14625   4.063   1.073   6.360 -2.4431 -1.4639  0.9775
  770EMI    H1"14626   4.211   1.109   6.279 -0.1725  1.5691 -1.8683
  770EMI    C2"14627   4.220   0.920   6.384 -0.0426 -0.3651 -0.2252
  770EMI    H2"14628   4.247   0.953   6.490 -2.4540  0.9210  0.9240
  770EMI    H2"14629   4.163   0.834   6.393 -0.8385 -2.7795  1.8927
  770EMI    H2"14630   4.317   0.893   6.338  2.6408 -2.0691 -1.0312
  771EMI     N114631   4.480   2.711   0.368  0.4431 -0.1266 -0.3150
  771EMI     C214632   4.490   2.591   0.431 -0.1258  0.2433 -0.1140
  771EMI     N314633   4.557   2.605   0.547  0.2175  0.1964 -0.8049
  771EMI     C414634   4.599   2.736   0.553  0.0676 -0.6875 -0.1822
  771EMI     C514635   4.550   2.803   0.450  0.0346  0.1588  0.0071
  771EMI     H214636   4.457   2.495   0.398  2.1282  0.4927  2.2771
  771EMI     H414637   4.654   2.786   0.635  1.1982  2.7421 -1.2004
  771EMI     H514638   4.561   2.910   0.436  0.8851  0.4386 -2.3888
  771EMI    C1'14639   4.608   2.493   0.633  0.2609  0.3484  0.2657
  771EMI    H1'14640   4.639   2.536   0.730  4.0759 -0.1813  0.2797
  771EMI    H1'14641   4.539   2.413   0.641  4.1956 -1.2865  1.0211
  771EMI    H1'14642   4.697   2.457   0.589  0.3642  0.8810  1.8775
  771EMI    C1"14643   4.410   2.757   0.243  0.8527 -0.4343  0.4417
  771EMI    H1"14644   4.439   2.702   0.156  0.6840  0.4392 -2.5786
  771EMI    H1"14645   4.428   2.860   0.230  2.1898 -0.2707  2.5083
  771EMI    C2"14646   4.254   2.729   0.264 -0.0814 -0.7681 -1.0134
  771EMI    H2"14647   4.242   2.628   0.299 -0.2223  4.1785 -0.8477
  771EMI    H2"14648   4.225   2.795   0.350  1.6648 -1.3052 -0.8304
  771EMI    H2"14649   4.200   2.754   0.174 -0.2217 -1.4337 -0.1499
  772EMI     N114650   1.287   6.746   2.500 -0.0525 -0.2550 -0.6394
  772EMI     C214651   1.171   6.791   2.553  0.5830  0.3321 -0.4439
  772EMI     N314652   1.104   6.852   2.451 -0.4727 -0.2225  0.3434
  772EMI     C414653   1.175   6.841   2.339  1.0917 -0.8187 -0.2428
  772EMI     C514654   1.286   6.779   2.366 -0.0091  0.1897 -0.3928
  772EMI     H214655   1.129   6.792   2.652 -0.7840  2.1224  0.5541
  772EMI     H414656   1.135   6.876   2.241 -1.1739  0.3564 -0.5850
  772EMI     H514657   1.354   6.753   2.283 -1.5271  2.4672 -2.9821
  772EMI    C1'14658   0.966   6.907   2.455 -0.4762 -0.4993 -0.1829
  772EMI    H1'14659   0.965   7.008   2.510 -2.1752  1.2962 -0.9659
  772EMI    H1'14660   0.937   6.929   2.352  1.2862  1.4693  2.8131
  772EMI    H1'14661   0.893   6.842   2.500 -1.0326  1.8368 -0.2923
  772EMI    C1"14662   1.384   6.662   2.572 -0.5006 -0.2392  0.5433
  772EMI    H1"14663   1.453   6.611   2.504 -2.1063 -1.1956  1.9719
  772EMI    H1"14664   1.312   6.591   2.626  0.8845 -1.1805 -2.0642
  772EMI    C2"14665   1.471   6.745   2.673  0.1292  0.2185 -0.6772
  772EMI    H2"14666   1.544   6.678   2.720  0.2415  1.1973 -2.1481
  772EMI    H2"14667   1.532   6.820   2.621  0.8743 -2.8312 -0.3410
  772EMI    H2"14668   1.405   6.797   2.745  2.3503 -2.2250 -1.9118
  773EMI     N114669   4.733   1.799   4.089 -0.1068 -0.3695  0.3020
  773EMI     C214670   4.741   1.685   4.022 -0.0906 -0.0992  0.4178
  773EMI     N314671   4.865   1.661   3.973 -0.7904  0.0608 -0.9962
  773EMI     C414672   4.941   1.766   4.012 -0.2269 -0.3132 -0.1970
  773EMI     C514673   4.858   1.854   4.079 -0.1983 -0.4079  0.5664
  773EMI     H214674   4.661   1.613   4.007  1.3769 -3.1054  0.4051
  773EMI     H414675   5.044   1.780   3.996 -0.0915  0.3704 -0.8359
  773EMI     H514676   4.868   1.944   4.127  0.3352 -1.9879  1.3018
  773EMI    C1'14677   4.917   1.535   3.908 -0.2891  0.3983  0.2957
  773EMI    H1'14678   5.020   1.540   3.922 -0.3703  0.5126  0.0157
  773EMI    H1'14679   4.882   1.441   3.957 -0.3024  1.4846  3.5224
  773EMI    H1'14680   4.905   1.529   3.793  0.4434 -1.0327 -0.5387
  773EMI    C1"14681   4.618   1.867   4.162 -0.3173  0.6449  0.5758
  773EMI    H1"14682   4.556   1.784   4.178  1.9110  0.5838  2.0173
  773EMI    H1"14683   4.570   1.941   4.097 -1.7317  0.4608  1.4085
  773EMI    C2"14684   4.666   1.927   4.304  0.7872 -0.7269  0.3340
  773EMI    H2"14685   4.717   2.023   4.290 -0.5462  0.6592 -1.7279
  773EMI    H2"14686   4.582   1.936   4.372  1.5397 -0.3235 -1.3908
  773EMI    H2"14687   4.730   1.863   4.365 -3.2783  0.9701  0.7654
  774EMI     N114688   2.598   0.396   1.827 -0.1619 -0.1059 -0.4359
  774EMI     C214689   2.627   0.521   1.871 -0.0597  0.5990  0.3814
  774EMI     N314690   2.594   0.532   2.003  0.1453  0.3757 -0.4057
  774EMI     C414691   2.535   0.409   2.042 -0.0989  0.2741  0.3721
  774EMI     C514692   2.534   0.331   1.929  0.0832 -0.2149 -0.0858
  774EMI     H214693   2.670   0.595   1.804  2.5686 -1.9219  2.4699
  774EMI     H414694   2.481   0.386   2.134 -1.0734 -2.1766  0.7521
  774EMI     H514695   2.495   0.234   1.922 -0.9735  2.0468  2.9443
  774EMI    C1'14696   2.603   0.649   2.091 -0.4379 -0.0816  0.0814
  774EMI    H1'14697   2.533   0.720   2.045  2.1133  0.4657  0.0944
  774EMI    H1'14698   2.574   0.617   2.192  1.4407  0.9971 -1.3623
  774EMI    H1'14699   2.701   0.686   2.091  1.3883  0.2276 -1.5013
  774EMI    C1"14700   2.610   0.336   1.692 -0.1649  0.4440  0.7233
  774EMI    H1"14701   2.539   0.256   1.668  0.8145 -4.0473 -0.4089
  774EMI    H1"14702   2.707   0.295   1.693  0.9848  1.4559  0.5238
  774EMI    C2"14703   2.608   0.445   1.583  0.3856 -0.6952 -0.8389
  774EMI    H2"14704   2.622   0.401   1.486  2.5439 -1.2924  1.0334
  774EMI    H2"14705   2.512   0.500   1.574 -4.1350 -0.6359 -1.0581
  774EMI    H2"14706   2.695   0.516   1.589 -0.5028  0.5005  3.3146
  775EMI     N114707   6.494   6.805   1.083  0.1751 -0.1112  0.2184
  775EMI     C214708   6.456   6.760   0.964  0.3202  0.0061 -0.0656
  775EMI     N314709   6.433   6.864   0.880 -0.0558  0.4347  0.9290
  775EMI     C414710   6.448   6.980   0.956  0.0087  0.3952  0.5673
  775EMI     C514711   6.486   6.945   1.077 -0.0524  0.1643  0.5062
  775EMI     H214712   6.455   6.650   0.938  1.6180 -1.8457 -0.4446
  775EMI     H414713   6.434   7.085   0.923  1.4120  0.5693  0.4930
  775EMI     H514714   6.492   7.013   1.158 -1.8960 -0.4281  2.2252
  775EMI    C1'14715   6.398   6.850   0.738  0.3355 -0.0142  0.1246
  775EMI    H1'14716   6.470   6.900   0.682 -0.9844 -0.8802  1.9976
  775EMI    H1'14717   6.394   6.744   0.719  0.9126  2.0432  0.0757
  775EMI    H1'14718   6.299   6.899   0.715  1.4763 -2.1614 -1.1141
  775EMI    C1"14719   6.561   6.735   1.190  0.2250 -0.2473 -0.5657
  775EMI    H1"14720   6.648   6.794   1.221  2.2726 -0.9450 -1.0579
  775EMI    H1"14721   6.590   6.638   1.154  0.4354 -0.6926 -0.6163
  775EMI    C2"14722   6.464   6.717   1.310 -0.4165  0.3227  0.0954
  775EMI    H2"14723   6.495   6.637   1.372 -0.7254 -4.0931 -2.2008
  775EMI    H2"14724   6.451   6.812   1.370 -3.4282  2.2794 -2.8203
  775EMI    H2"14725   6.366   6.697   1.266 -1.1938  0.8448  1.6272
  776EMI     N114726   2.000   1.202   1.180 -0.5989  0.0643 -0.3633
  776EMI     C214727   1.917   1.299   1.207  0.6903  0.3626  0.4113
  776EMI     N314728   1.964   1.415   1.171  0.5100  0.1133 -0.1170
  776EMI     C414729   2.085   1.386   1.113  0.2273  0.7612  0.0271
  776EMI     C514730   2.109   1.258   1.112 -0.2360 -0.2654  0.0498
  776EMI     H214731   1.822   1.288   1.257 -0.8217  1.3222  2.1478
  776EMI     H414732   2.141   1.466   1.058  0.5140 -2.1544 -0.4721
  776EMI     H514733   2.192   1.203   1.065 -4.4113  0.1031 -0.9655
  776EMI    C1'14734   1.915   1.551   1.205 -1.1241 -0.4015  0.1412
  776EMI    H1'14735   1.828   1.575   1.138 -1.1665 -0.1381  1.0521
  776EMI    H1'14736   1.887   1.567   1.302  2.3474  0.2542 -0.4470
  776EMI    H1'14737   1.992   1.623   1.189  0.3958  0.4019  0.2191
  776EMI    C1"14738   1.986   1.058   1.210 -0.4685  0.7019  0.1930
  776EMI    H1"14739   1.896   1.045   1.278 -0.2497 -1.0419  1.6469
  776EMI    H1"14740   2.064   1.030   1.263 -1.1894  3.7031 -2.5871
  776EMI    C2"14741   1.972   0.973   1.078  0.0576 -0.4309  0.1258
  776EMI    H2"14742   1.895   1.019   1.025  0.9340  0.7865  1.9455
  776EMI    H2"14743   2.061   0.986   1.012 -3.3520 -0.5754 -0.1018
  776EMI    H2"14744   1.939   0.871   1.092  0.8834 -2.8171 -2.0650
  777EMI     N114745   2.724   6.218   6.289 -0.2582 -0.3271  0.9386
  777EMI     C214746   2.697   6.188   6.161 -0.3296  0.4268  0.2466
  777EMI     N314747   2.610   6.278   6.113 -0.2005 -0.2359  0.1314
  777EMI     C414748   2.606   6.386   6.198  0.2471 -0.1354 -0.0027
  777EMI     C514749   2.675   6.339   6.308  0.0015 -0.4139  0.3117
  777EMI     H214750   2.725   6.093   6.120 -1.9119  0.8134 -0.6636
  777EMI     H414751   2.553   6.480   6.196 -0.6757 -0.3537 -1.6757
  777EMI     H514752   2.687   6.403   6.406 -1.1669  0.3264  1.1643
  777EMI    C1'14753   2.522   6.264   5.997 -0.5450  0.3455 -0.5251
  777EMI    H1'14754   2.529   6.343   5.918 -1.2145  0.3697 -1.9223
  777EMI    H1'14755   2.551   6.167   5.942 -0.0719 -2.5386 -1.2694
  777EMI    H1'14756   2.414   6.261   6.017 -1.0245 -2.0089 -1.3770
  777EMI    C1"14757   2.773   6.132   6.402 -0.7737  0.4233 -0.6850
  777EMI    H1"14758   2.687   6.072   6.441  0.0325  0.3837 -1.2553
  777EMI    H1"14759   2.809   6.178   6.496  1.5859  1.4822  0.7713
  777EMI    C2"14760   2.887   6.036   6.354 -0.7335  0.0804  0.6928
  777EMI    H2"14761   2.931   5.981   6.433  0.5891  3.1397 -2.5429
  777EMI    H2"14762   2.857   5.975   6.270 -0.1725 -1.1461  2.2677
  777EMI    H2"14763   2.964   6.109   6.321  0.7795  0.4350 -2.2394
  778EMI     N114764   2.511   0.124   4.784  0.5299  0.5267 -0.0305
  778EMI     C214765   2.534  -0.002   4.829 -0.1848 -0.4956  0.1231
  778EMI     N314766   2.418  -0.060   4.855  0.0826  0.2413 -0.2277
  778EMI     C414767   2.320   0.018   4.808  0.0666 -0.4507  0.0269
  778EMI     C514768   2.376   0.133   4.764 -0.1943  0.0088 -0.2443
  778EMI     H214769   2.631  -0.043   4.844 -1.8645  1.0105  0.1500
  778EMI     H414770   2.216  -0.005   4.788  0.2066 -2.4004  0.3171
  778EMI     H514771   2.335   0.224   4.723  3.2162 -0.8423 -1.0225
  778EMI    C1'14772   2.404  -0.194   4.906  0.4465  0.7852 -0.1080
  778EMI    H1'14773   2.319  -0.241   4.857  0.3360  1.0671  0.5522
  778EMI    H1'14774   2.488  -0.260   4.892 -0.7042 -1.1409  1.1455
  778EMI    H1'14775   2.392  -0.184   5.017  2.7300  1.8591 -0.2827
  778EMI    C1"14776   2.608   0.232   4.743  0.2369  0.0098 -0.3803
  778EMI    H1"14777   2.568   0.329   4.771 -1.2603  2.6074  3.0671
  778EMI    H1"14778   2.636   0.228   4.636 -0.9018  0.9646 -1.8987
  778EMI    C2"14779   2.744   0.196   4.812 -0.5047 -0.0754 -0.2074
  778EMI    H2"14780   2.816   0.266   4.788 -2.2835  2.5424 -1.1125
  778EMI    H2"14781   2.723   0.193   4.916 -1.3970 -0.4364 -0.2692
  778EMI    H2"14782   2.771   0.095   4.784  0.8381 -0.6004  1.0361
  779EMI     N114783   3.727   6.040   3.976 -0.5413  0.3421 -0.0821
  779EMI     C214784   3.791   6.132   4.052  0.5792 -0.4034  0.3930
  779EMI     N314785   3.722   6.241   4.053 -0.5525  0.1010  0.1984
  779EMI     C414786   3.608   6.219   3.978  0.2122  0.6164  0.7574
  779EMI     C514787   3.617   6.096   3.926  1.0278 -0.4091 -0.3800
  779EMI     H214788   3.882   6.120   4.098  1.0257  1.6712  0.4576
  779EMI     H414789   3.542   6.293   3.955 -0.7579 -3.2174 -0.1631
  779EMI     H514790   3.545   6.049   3.867  3.6819  1.9213  2.5331
  779EMI    C1'14791   3.744   6.377   4.099 -0.6520 -0.3860 -0.0007
  779EMI    H1'14792   3.847   6.384   4.109  2.4076 -2.4238  0.1869
  779EMI    H1'14793   3.704   6.457   4.030 -0.6872 -0.4248  0.8404
  779EMI    H1'14794   3.694   6.389   4.191  2.0546 -0.1119 -0.4157
  779EMI    C1"14795   3.756   5.897   3.939 -0.7176 -0.1114  0.4034
  779EMI    H1"14796   3.664   5.837   3.949  0.1275 -0.0054 -0.8461
  779EMI    H1"14797   3.830   5.872   4.005 -2.1989 -0.7873 -1.2608
  779EMI    C2"14798   3.821   5.895   3.800  0.3424  0.1802 -0.3324
  779EMI    H2"14799   3.905   5.956   3.791  0.5968  1.1561  1.1533
  779EMI    H2"14800   3.832   5.791   3.767 -1.6807  2.6297  0.1874
  779EMI    H2"14801   3.743   5.943   3.737  1.0335  0.5618 -0.6819
  780EMI     N114802   0.046   1.691   5.249 -0.7297 -0.9304 -0.1549
  780EMI     C214803  -0.072   1.686   5.189  0.2839  0.2470 -0.4075
  780EMI     N314804  -0.133   1.804   5.194 -0.5312 -0.0123 -0.4843
  780EMI     C414805  -0.052   1.893   5.260  0.4262 -0.0347  0.4303
  780EMI     C514806   0.057   1.825   5.297 -0.3039  0.1950  0.1710
  780EMI     H214807  -0.112   1.602   5.134  0.4445 -0.4413 -0.8618
  780EMI     H414808  -0.068   1.998   5.276  1.6128  0.2309 -3.0409
  780EMI     H514809   0.138   1.867   5.350  3.5151  2.0201 -0.0014
  780EMI    C1'14810  -0.240   1.855   5.098 -0.6616 -0.1398  0.3023
  780EMI    H1'14811  -0.243   1.971   5.094 -0.4864  1.5764 -2.4511
  780EMI    H1'14812  -0.208   1.827   4.996  1.1982  1.5648  0.2715
  780EMI    H1'14813  -0.337   1.807   5.111 -0.9802 -2.7173 -2.3008
  780EMI    C1"14814   0.130   1.578   5.290  0.4273  0.0194  0.0439
  780EMI    H1"14815   0.229   1.615   5.275 -1.8293 -1.5177 -0.7559
  780EMI    H1"14816   0.118   1.488   5.235  1.1742  0.9799  0.7980
  780EMI    C2"14817   0.097   1.540   5.431  0.4122 -0.3768 -0.2547
  780EMI    H2"14818  -0.013   1.526   5.447 -1.1054  0.9205  1.0567
  780EMI    H2"14819   0.168   1.461   5.462  1.2066  1.2342  0.3315
  780EMI    H2"14820   0.126   1.624   5.485 -0.1988 -0.8322 -0.9349
  781EMI     N114821   0.932   2.909   0.690  0.0576  0.0091  0.1715
  781EMI     C214822   0.947   2.809   0.780 -0.4322  0.0947  0.1203
  781EMI     N314823   0.887   2.690   0.754  0.9427 -0.6370 -0.1145
  781EMI     C414824   0.808   2.719   0.646  0.0497  0.9027  0.2030
  781EMI     C514825   0.840   2.845   0.601  0.2059 -0.1704  0.3586
  781EMI     H214826   1.009   2.838   0.868 -0.5134  0.9926 -0.8241
  781EMI     H414827   0.731   2.658   0.594 -2.5548 -1.3299  0.1330
  781EMI     H514828   0.812   2.897   0.505  2.9253  1.3187 -1.6953
  781EMI    C1'14829   0.877   2.569   0.826  0.2851  0.6862 -0.2086
  781EMI    H1'14830   0.842   2.588   0.929  0.8011  0.4338 -1.2900
  781EMI    H1'14831   0.806   2.503   0.777  1.1777  1.6426  0.3813
  781EMI    H1'14832   0.972   2.523   0.827 -0.7748  1.7365 -1.0342
  781EMI    C1"14833   0.999   3.039   0.671 -0.4109  0.3892  0.1581
  781EMI    H1"14834   0.973   3.087   0.577  2.0723 -1.1997 -2.3091
  781EMI    H1"14835   1.109   3.025   0.663  2.7426  1.1937  2.2335
  781EMI    C2"14836   0.973   3.140   0.782 -0.2733  0.0348  0.4452
  781EMI    H2"14837   0.863   3.169   0.792  0.0291  2.5286  2.8236
  781EMI    H2"14838   1.009   3.102   0.875  0.3573  0.7281 -2.2888
  781EMI    H2"14839   1.016   3.242   0.766 -1.5436 -1.8006  1.1091
  782EMI     N114840   6.118   4.672   5.169 -0.7315  0.2067 -0.6488
  782EMI     C214841   6.147   4.806   5.184  1.1402  0.8804  0.9138
  782EMI     N314842   6.184   4.855   5.063 -0.4005  0.3655 -0.1642
  782EMI     C414843   6.173   4.750   4.976 -0.8086  0.0334  1.0540
  782EMI     C514844   6.124   4.642   5.037 -0.0531 -0.0080  0.1971
  782EMI     H214845   6.144   4.856   5.279 -1.7708  0.5547 -2.2011
  782EMI     H414846   6.198   4.738   4.874  1.5471 -1.1451  0.3174
  782EMI     H514847   6.109   4.544   4.988  1.2034 -1.4499 -1.1566
  782EMI    C1'14848   6.225   4.988   5.027 -0.2984 -0.4253  0.8337
  782EMI    H1'14849   6.216   5.055   5.109  4.5004 -0.8694 -0.6729
  782EMI    H1'14850   6.328   4.995   4.983  1.4330  1.2572 -1.4723
  782EMI    H1'14851   6.164   5.028   4.947 -1.7145 -0.0558  0.8351
  782EMI    C1"14852   6.114   4.564   5.274 -0.3300 -0.1622  0.5573
  782EMI    H1"14853   6.132   4.605   5.372 -1.1282  0.0093  0.6495
  782EMI    H1"14854   6.197   4.488   5.249 -0.2023 -0.5540 -0.3910
  782EMI    C2"14855   5.975   4.501   5.279 -0.5526  0.2234 -0.1551
  782EMI    H2"14856   5.941   4.470   5.180  0.4151  1.4233  1.3908
  782EMI    H2"14857   5.993   4.423   5.349 -0.4585  0.3399  1.1597
  782EMI    H2"14858   5.901   4.565   5.329  0.0538 -2.5376  0.9768
  783EMI     N114859   6.581   0.026   4.770 -0.4753  0.0158  0.2038
  783EMI     C214860   6.493  -0.041   4.852 -0.4205  1.1848 -0.3210
  783EMI     N314861   6.512  -0.171   4.838  0.5647  0.5070 -0.2113
  783EMI     C414862   6.601  -0.196   4.734  0.7509 -0.6654 -1.0919
  783EMI     C514863   6.644  -0.074   4.699 -0.3187  0.4855 -0.6775
  783EMI     H214864   6.432   0.004   4.923  0.0604 -1.5274 -0.0920
  783EMI     H414865   6.624  -0.284   4.682  2.9622  2.0891 -0.3426
  783EMI     H514866   6.715  -0.055   4.614  0.5334 -0.3694  1.2934
  783EMI    C1'14867   6.440  -0.272   4.919 -0.1984 -0.2203  0.0912
  783EMI    H1'14868   6.451  -0.367   4.865 -2.3649 -0.3374  1.3331
  783EMI    H1'14869   6.475  -0.268   5.024  1.8454  1.9804  1.3519
  783EMI    H1'14870   6.331  -0.248   4.918 -2.1286  2.8170 -0.6866
  783EMI    C1"14871   6.613   0.173   4.758 -0.5632 -0.3368  0.3897
  783EMI    H1"14872   6.666   0.178   4.662 -0.2789 -1.1179 -3.1142
  783EMI    H1"14873   6.677   0.204   4.838  0.9658 -0.9078  0.9756
  783EMI    C2"14874   6.491   0.262   4.754  0.1575  0.3418 -0.7873
  783EMI    H2"14875   6.443   0.245   4.851  0.0738 -0.0467  1.1975
  783EMI    H2"14876   6.530   0.363   4.747  2.1896 -0.6554 -2.5636
  783EMI    H2"14877   6.419   0.241   4.677 -0.5129 -3.6117  1.4274
  784EMI     N114878   6.391   3.042   4.720  0.5545 -0.3446 -0.5686
  784EMI     C214879   6.498   3.009   4.796  0.0543 -0.5592  0.8747
  784EMI     N314880   6.560   2.906   4.736  0.2130 -0.0475  0.0761
  784EMI     C414881   6.486   2.866   4.629  0.0949 -0.3232 -0.7280
  784EMI     C514882   6.380   2.947   4.626  0.3471 -0.5163  0.0246
  784EMI     H214883   6.544   3.053   4.882  0.1723 -0.0436  1.5270
  784EMI     H414884   6.505   2.789   4.554 -0.5100 -3.1811 -0.1174
  784EMI     H514885   6.305   2.943   4.558  0.5299 -0.9966 -0.0805
  784EMI    C1'14886   6.685   2.839   4.771 -0.2102 -0.3471 -0.4023
  784EMI    H1'14887   6.712   2.779   4.695 -0.6660 -0.8229  1.6283
  784EMI    H1'14888   6.763   2.915   4.798  2.6699 -0.5656  0.3960
  784EMI    H1'14889   6.665   2.777   4.853  0.4880 -0.1954 -0.3199
  784EMI    C1"14890   6.299   3.160   4.732 -0.0648  0.3052  0.5784
  784EMI    H1"14891   6.293   3.190   4.841 -0.6757 -0.7084 -0.1470
  784EMI    H1"14892   6.193   3.132   4.705 -2.1060 -0.3223  2.8540
  784EMI    C2"14893   6.344   3.272   4.642  0.0021  0.3262  0.1896
  784EMI    H2"14894   6.438   3.311   4.681  0.8891 -1.1749 -1.6901
  784EMI    H2"14895   6.341   3.245   4.534 -0.5991 -0.1038 -0.9721
  784EMI    H2"14896   6.279   3.360   4.649  0.2044  1.6203 -2.6710
  785EMI     N114897   4.676   4.964   1.868 -0.9838 -0.0839 -0.2765
  785EMI     C214898   4.651   5.033   1.755  0.5133 -0.3444  0.3622
  785EMI     N314899   4.538   5.099   1.761 -0.0538  0.2078  0.1847
  785EMI     C414900   4.492   5.083   1.890  0.2507 -0.2947  0.2276
  785EMI     C514901   4.572   5.001   1.958 -0.6408  0.2953  0.5626
  785EMI     H214902   4.722   5.038   1.668 -0.1591 -0.9258  0.5425
  785EMI     H414903   4.401   5.123   1.927 -0.0097 -0.5489 -1.4572
  785EMI     H514904   4.557   4.952   2.054 -0.2134  0.1370 -1.3802
  785EMI    C1'14905   4.474   5.171   1.650  0.5982 -0.1176  0.4319
  785EMI    H1'14906   4.547   5.214   1.589 -0.8927 -1.2538 -0.2660
  785EMI    H1'14907   4.412   5.104   1.587 -1.7111 -3.7319 -0.9621
  785EMI    H1'14908   4.412   5.248   1.676  0.8538 -0.7990 -2.1340
  785EMI    C1"14909   4.794   4.871   1.896 -0.3910 -0.0270 -0.4579
  785EMI    H1"14910   4.765   4.766   1.871  1.1272 -1.6216 -1.2092
  785EMI    H1"14911   4.806   4.881   2.007 -2.5392 -0.5124  4.1701
  785EMI    C2"14912   4.917   4.915   1.828 -0.0378  0.0903 -0.2093
  785EMI    H2"14913   4.902   4.915   1.722 -1.1442  0.2489 -0.6661
  785EMI    H2"14914   4.948   5.007   1.873  1.0487  0.1382  1.6311
  785EMI    H2"14915   4.990   4.839   1.857  1.9092 -1.1197  0.3921
  786EMI     N114916   3.568   2.629   2.335  0.2007 -0.1607 -0.0797
  786EMI     C214917   3.661   2.702   2.394  0.6960  0.7306 -0.1257
  786EMI     N314918   3.693   2.656   2.513 -0.0649 -0.2857  0.3202
  786EMI     C414919   3.618   2.545   2.533  0.3085  0.6943 -0.0410
  786EMI     C514920   3.537   2.526   2.426  0.3916 -0.1959  0.0946
  786EMI     H214921   3.699   2.797   2.349 -1.4650  2.5959 -0.0353
  786EMI     H414922   3.630   2.484   2.626 -0.3633  0.9454 -0.0217
  786EMI     H514923   3.475   2.436   2.411  0.5970 -3.5631 -2.3797
  786EMI    C1'14924   3.800   2.683   2.605  0.1336 -0.1459 -0.6005
  786EMI    H1'14925   3.897   2.706   2.561  0.3860 -0.1804  1.7957
  786EMI    H1'14926   3.766   2.769   2.655  1.8531  0.6090 -1.6673
  786EMI    H1'14927   3.808   2.598   2.675 -1.5172 -1.1067  0.2579
  786EMI    C1"14928   3.487   2.642   2.210  0.4199  0.5237  0.4331
  786EMI    H1"14929   3.461   2.537   2.169 -1.8756 -4.7210  0.0730
  786EMI    H1"14930   3.544   2.696   2.135  0.2797 -1.5898  0.1047
  786EMI    C2"14931   3.357   2.720   2.245 -1.3928 -0.1234  0.2878
  786EMI    H2"14932   3.385   2.820   2.275  0.1201  0.9623  1.9710
  786EMI    H2"14933   3.300   2.726   2.153 -2.5808  0.5122  0.5657
  786EMI    H2"14934   3.307   2.675   2.331 -2.2116  2.0932 -1.1101
  787EMI     N114935   3.371   1.423   5.432  0.9849  0.0543  0.0402
  787EMI     C214936   3.445   1.472   5.534 -0.8255 -0.5224  0.1976
  787EMI     N314937   3.571   1.468   5.491 -0.1254  0.8159  0.3745
  787EMI     C414938   3.572   1.417   5.360 -0.7597  0.3434 -0.3969
  787EMI     C514939   3.446   1.401   5.323 -0.0347  0.2481 -0.4091
  787EMI     H214940   3.423   1.514   5.631 -0.8364  1.3400 -1.4611
  787EMI     H414941   3.660   1.397   5.300 -0.9704  0.3378  1.3950
  787EMI     H514942   3.416   1.355   5.231 -0.3318 -1.3698  0.1824
  787EMI    C1'14943   3.678   1.558   5.533  0.5514  0.1495 -0.1899
  787EMI    H1'14944   3.698   1.551   5.638  0.6229 -0.8739 -1.1860
  787EMI    H1'14945   3.772   1.531   5.476  3.1964  1.4701 -1.1953
  787EMI    H1'14946   3.661   1.664   5.513  0.6664 -2.7166  1.1207
  787EMI    C1"14947   3.227   1.383   5.450  0.0275 -0.1989  0.2373
  787EMI    H1"14948   3.172   1.442   5.378  2.3543 -1.7800  3.0661
  787EMI    H1"14949   3.194   1.414   5.551 -0.6921  1.2590 -0.8315
  787EMI    C2"14950   3.213   1.230   5.426  0.1183  0.3322 -0.1483
  787EMI    H2"14951   3.299   1.184   5.480  0.8133  2.0784 -1.4214
  787EMI    H2"14952   3.114   1.193   5.443 -1.4045 -0.7825  0.7871
  787EMI    H2"14953   3.227   1.203   5.320  1.5724 -1.9020 -1.8269
  788EMI     N114954   4.460   5.205   4.550 -0.5207 -1.0176 -0.1686
  788EMI     C214955   4.535   5.181   4.658  0.4371 -0.0193 -0.1869
  788EMI     N314956   4.459   5.198   4.773 -0.4667 -0.9388  0.2299
  788EMI     C414957   4.332   5.217   4.732 -0.1064 -0.2048 -0.5902
  788EMI     C514958   4.335   5.224   4.599  0.0505 -0.7603  0.2939
  788EMI     H214959   4.638   5.168   4.648 -0.0639  1.4218 -0.5842
  788EMI     H414960   4.245   5.232   4.798 -0.1607  1.2912  0.4582
  788EMI     H514961   4.251   5.230   4.534  1.1756 -2.2152  1.6847
  788EMI    C1'14962   4.491   5.192   4.914 -0.4162  0.1352  0.9974
  788EMI    H1'14963   4.446   5.280   4.969 -2.5183  0.4298 -0.8053
  788EMI    H1'14964   4.445   5.103   4.943  0.2660  0.5591  0.6267
  788EMI    H1'14965   4.593   5.170   4.933  1.5122  1.9765  0.1906
  788EMI    C1"14966   4.518   5.219   4.414 -0.5239  0.2359 -0.6382
  788EMI    H1"14967   4.626   5.250   4.418  1.6088  2.9529 -1.6256
  788EMI    H1"14968   4.467   5.295   4.352 -1.7911 -0.6446 -0.8080
  788EMI    C2"14969   4.516   5.087   4.339 -0.1481  0.3719 -0.2837
  788EMI    H2"14970   4.546   5.106   4.233  1.6488 -1.0572 -1.6977
  788EMI    H2"14971   4.580   5.010   4.388  0.0916  0.7968 -1.1184
  788EMI    H2"14972   4.416   5.047   4.342  0.5424 -0.4197  1.4223
  789EMI     N114973   6.780   5.203   3.567 -0.4752 -0.6025  0.2201
  789EMI     C214974   6.833   5.158   3.449 -0.1970 -0.1502 -0.3759
  789EMI     N314975   6.753   5.059   3.404  0.1363 -0.2446  0.1977
  789EMI     C414976   6.650   5.041   3.490 -0.0314 -0.1545 -0.1362
  789EMI     C514977   6.666   5.127   3.589 -0.0138 -0.3719  0.3711
  789EMI     H214978   6.920   5.190   3.395  0.1205  1.0134 -0.2753
  789EMI     H414979   6.559   4.971   3.483 -2.3729 -0.4923 -0.1195
  789EMI     H514980   6.601   5.140   3.672  1.3041 -3.9147 -0.4397
  789EMI    C1'14981   6.760   4.988   3.279  0.1403 -0.0871 -0.5799
  789EMI    H1'14982   6.665   4.951   3.243  1.2594 -4.1147  2.0606
  789EMI    H1'14983   6.822   5.038   3.209  0.0993 -1.4243 -0.7664
  789EMI    H1'14984   6.816   4.892   3.304  2.5254  1.0277  0.9292
  789EMI    C1"14985   6.841   5.296   3.670  0.8823 -0.1460 -0.1566
  789EMI    H1"14986   6.947   5.260   3.676 -0.1665  2.0509  1.1797
  789EMI    H1"14987   6.798   5.288   3.771 -0.7162  3.3209  0.9588
  789EMI    C2"14988   6.850   5.433   3.608 -0.0823  0.2428  0.2484
  789EMI    H2"14989   6.752   5.466   3.575 -1.3586  1.8923  0.0586
  789EMI    H2"14990   6.889   5.493   3.685  1.0394 -0.0713  0.6394
  789EMI    H2"14991   6.915   5.428   3.524 -1.2750 -0.5056  3.2649
  790EMI     N114992   5.404   2.841   5.584  0.3345 -0.5386  0.0379
  790EMI     C214993   5.501   2.836   5.498 -0.3449  0.1088  0.2324
  790EMI     N314994   5.451   2.817   5.377  0.0506 -0.5178 -0.3988
  790EMI     C414995   5.314   2.818   5.381 -0.3660  0.0878 -0.3080
  790EMI     C514996   5.283   2.838   5.512 -0.1886  0.1157 -0.2277
  790EMI     H214997   5.605   2.830   5.524 -2.8548 -0.7165 -3.0823
  790EMI     H414998   5.243   2.811   5.305  0.5835  0.3555 -1.0721
  790EMI     H514999   5.191   2.842   5.565 -2.6258 -0.3883 -0.4142
  790EMI    C1'15000   5.519   2.810   5.243  0.6559 -0.7932 -0.4650
  790EMI    H1'15001   5.531   2.910   5.191  0.6160 -1.3484 -0.4403
  790EMI    H1'15002   5.606   2.751   5.253  0.0940 -0.3556  1.7190
  790EMI    H1'15003   5.449   2.769   5.172  0.1704 -0.0765 -1.2404
  790EMI    C1"15004   5.404   2.862   5.732  0.1120 -0.3141  0.2005
  790EMI    H1"15005   5.390   2.769   5.781  1.7902 -0.6945  1.1781
  790EMI    H1"15006   5.318   2.923   5.759  0.0882  1.1291 -3.4230
  790EMI    C2"15007   5.534   2.923   5.787  0.0315  0.5516  0.1630
  790EMI    H2"15008   5.566   3.019   5.746 -0.4101  3.1739  2.8570
  790EMI    H2"15009   5.527   2.936   5.897  2.1924  2.3915  0.5641
  790EMI    H2"15010   5.618   2.862   5.758  0.9614 -0.6196  0.2062
  791EMI     N115011   4.752   3.370   3.294  0.0459  0.1385 -0.0096
  791EMI     C215012   4.707   3.399   3.174  0.3862  0.4421  0.0079
  791EMI     N315013   4.673   3.293   3.106 -0.0315 -0.1748 -0.0974
  791EMI     C415014   4.687   3.189   3.196  0.2817 -0.5649  0.1493
  791EMI     C515015   4.737   3.239   3.308 -0.5395  0.4837 -0.3343
  791EMI     H215016   4.700   3.501   3.139  1.9943 -1.8834  2.9824
  791EMI     H415017   4.652   3.089   3.182 -1.3442  0.0414  0.5302
  791EMI     H515018   4.754   3.188   3.400  0.0480  2.4546  1.1418
  791EMI    C1'15019   4.612   3.281   2.975  0.3786  0.1008 -0.4978
  791EMI    H1'15020   4.606   3.180   2.965  0.7350 -0.2275 -0.3984
  791EMI    H1'15021   4.510   3.321   2.987  3.1706 -0.5477 -0.6265
  791EMI    H1'15022   4.661   3.334   2.894 -0.8245  0.6103  0.4738
  791EMI    C1"15023   4.795   3.455   3.403  1.0512 -0.0321  0.0370
  791EMI    H1"15024   4.876   3.402   3.457 -1.0528 -0.1651  0.5340
  791EMI    H1"15025   4.714   3.468   3.476 -0.2584 -0.8797  1.8124
  791EMI    C2"15026   4.849   3.586   3.363 -0.3335 -0.1779  0.5023
  791EMI    H2"15027   4.907   3.623   3.451 -0.1524  2.7579 -1.4806
  791EMI    H2"15028   4.912   3.582   3.273 -1.0936  0.5511  0.7773
  791EMI    H2"15029   4.769   3.651   3.339 -0.9997 -0.5105 -0.2127
  792EMI     N115030   0.218   5.980   0.322 -0.4464  0.2527 -0.0355
  792EMI     C215031   0.110   5.910   0.354 -0.1020 -0.1486 -0.2780
  792EMI     N315032   0.105   5.897   0.489  0.3900  0.3527 -0.5320
  792EMI     C415033   0.217   5.959   0.543 -0.0282 -0.3197  0.6835
  792EMI     C515034   0.282   6.013   0.443 -0.2482 -0.7712  0.4122
  792EMI     H215035   0.038   5.876   0.281 -0.9628 -0.5070  0.3524
  792EMI     H415036   0.253   5.955   0.647 -0.3321 -2.3070 -3.2556
  792EMI     H515037   0.381   6.057   0.443 -1.0590 -3.4384 -3.4489
  792EMI    C1'15038  -0.000   5.829   0.572 -0.1947  0.1106 -0.2883
  792EMI    H1'15039  -0.024   5.884   0.659 -3.0114  0.7657 -1.6554
  792EMI    H1'15040  -0.093   5.824   0.521 -2.2597  2.7238  0.6572
  792EMI    H1'15041   0.032   5.725   0.595  2.3357 -1.3742 -0.3113
  792EMI    C1"15042   0.281   6.006   0.190 -0.0573 -0.1553 -0.8318
  792EMI    H1"15043   0.364   6.075   0.200  0.4831  2.9040 -0.1144
  792EMI    H1"15044   0.210   6.047   0.130  4.6096 -2.8300 -0.1520
  792EMI    C2"15045   0.324   5.877   0.129  0.1334  0.4917 -0.2978
  792EMI    H2"15046   0.390   5.819   0.195 -0.0568 -0.5458  0.5028
  792EMI    H2"15047   0.235   5.818   0.112 -2.0185  0.3721 -2.0596
  792EMI    H2"15048   0.363   5.904   0.032 -2.4982  1.7415  1.6296
  793EMI     N115049   5.212   6.105   2.841 -0.0727 -0.0297  0.3117
  793EMI     C215050   5.296   6.009   2.881  0.4122 -0.1425  0.8258
  793EMI     N315051   5.291   6.014   3.017 -0.2592 -0.1572  0.2645
  793EMI     C415052   5.208   6.115   3.055  0.3792 -0.2933 -0.6497
  793EMI     C515053   5.150   6.165   2.946 -0.8182 -0.0613 -0.5974
  793EMI     H215054   5.360   5.950   2.813  1.5168  0.3325 -1.3332
  793EMI     H415055   5.187   6.137   3.161  1.4938  0.4954 -2.2754
  793EMI     H515056   5.071   6.245   2.927 -4.0436 -0.1471 -1.6562
  793EMI    C1'15057   5.378   5.954   3.110  0.3225 -0.2451 -0.3005
  793EMI    H1'15058   5.416   6.022   3.186  1.3835  0.9800  2.9978
  793EMI    H1'15059   5.325   5.876   3.162  0.7674  1.4769  1.7494
  793EMI    H1'15060   5.465   5.902   3.070  3.3123 -0.5103  0.5080
  793EMI    C1"15061   5.185   6.150   2.701 -0.1725 -0.7562  0.9003
  793EMI    H1"15062   5.080   6.130   2.672  0.1636  0.2869 -1.3440
  793EMI    H1"15063   5.238   6.086   2.628  0.3850  1.2306 -1.2481
  793EMI    C2"15064   5.216   6.300   2.668  0.0419  0.3810  0.4815
  793EMI    H2"15065   5.145   6.345   2.594 -0.7246 -0.9337 -0.8732
  793EMI    H2"15066   5.202   6.359   2.758 -0.7183 -0.8341 -2.1062
  793EMI    H2"15067   5.320   6.317   2.642  0.3409  1.0712 -2.3402
  794EMI     N115068   0.918   1.235   3.280 -0.2905  0.1269  0.3232
  794EMI     C215069   0.979   1.319   3.195  0.6587  0.5899  0.3984
  794EMI     N315070   1.070   1.392   3.264  0.3026 -0.0210  0.1594
  794EMI     C415071   1.074   1.338   3.392 -0.0544  0.3762 -0.8842
  794EMI     C515072   0.972   1.251   3.405 -0.1973 -0.0699  0.0238
  794EMI     H215073   0.971   1.329   3.088 -2.0344 -0.6851 -0.2919
  794EMI     H415074   1.147   1.386   3.463  0.1399 -0.8045  0.6702
  794EMI     H515075   0.953   1.198   3.503 -1.7721 -0.6861 -0.8113
  794EMI    C1'15076   1.168   1.490   3.212  0.1634 -0.9091 -0.7310
  794EMI    H1'15077   1.140   1.591   3.236  0.1262  0.3512  1.9985
  794EMI    H1'15078   1.264   1.467   3.250  0.1907  0.4621 -1.3100
  794EMI    H1'15079   1.162   1.489   3.101  2.0202 -0.1180 -1.1448
  794EMI    C1"15080   0.808   1.144   3.255  0.8722 -0.1618  0.5990
  794EMI    H1"15081   0.739   1.183   3.181 -2.4314 -0.0927  0.1611
  794EMI    H1"15082   0.760   1.130   3.353  0.4499 -1.9886  1.7028
  794EMI    C2"15083   0.852   1.012   3.208 -0.6433  0.2012  0.0589
  794EMI    H2"15084   0.918   0.954   3.271  3.0321  0.1605 -0.3255
  794EMI    H2"15085   0.770   0.954   3.208  0.5010 -0.6468  0.0468
  794EMI    H2"15086   0.908   1.028   3.119  0.6820  0.5903  2.3350
  795EMI     N115087   5.415   4.585   0.982 -0.7037  0.5280 -0.2643
  795EMI     C215088   5.305   4.508   0.959  0.0632  1.1007  0.2482
  795EMI     N315089   5.276   4.431   1.060  0.3007  0.1295 -0.4673
  795EMI     C415090   5.356   4.474   1.162 -0.3911  0.5007 -0.6570
  795EMI     C515091   5.445   4.566   1.119  0.2389  0.6555  0.7148
  795EMI     H215092   5.246   4.506   0.866  0.1014 -1.7039 -1.7746
  795EMI     H415093   5.335   4.430   1.262 -1.2446 -1.0854 -2.7097
  795EMI     H515094   5.527   4.616   1.176 -1.4126 -0.1597  0.6138
  795EMI    C1'15095   5.180   4.329   1.088 -0.4058 -0.5037  0.2064
  795EMI    H1'15096   5.238   4.237   1.118  1.3401  1.3679  0.2985
  795EMI    H1'15097   5.122   4.357   1.173  1.4526  0.5553 -3.1662
  795EMI    H1'15098   5.137   4.284   0.997 -2.0239 -1.0792 -0.0539
  795EMI    C1"15099   5.491   4.682   0.897 -0.7140  0.4445  0.3573
  795EMI    H1"15100   5.431   4.713   0.818 -1.4736  0.6724  3.0743
  795EMI    H1"15101   5.570   4.619   0.851 -0.1979 -0.7568  2.0441
  795EMI    C2"15102   5.564   4.793   0.969 -0.1274 -0.1300 -0.3126
  795EMI    H2"15103   5.628   4.860   0.900 -1.2052 -0.3299  0.5006
  795EMI    H2"15104   5.480   4.847   1.017  0.4531 -1.1525 -1.8910
  795EMI    H2"15105   5.632   4.756   1.049  1.7743  0.7355 -0.2924
  796EMI     N115106   5.852   0.781   4.110  0.1615 -0.0740  0.1727
  796EMI     C215107   5.830   0.670   4.185  0.3325 -0.2504  0.3570
  796EMI     N315108   5.943   0.625   4.239  0.9802  0.2812 -0.2057
  796EMI     C415109   6.045   0.711   4.204 -0.4070  0.3097 -0.4249
  796EMI     C515110   5.992   0.802   4.120  0.2999 -0.0062 -0.2299
  796EMI     H215111   5.733   0.622   4.184 -1.9920 -0.6333 -2.1976
  796EMI     H415112   6.145   0.706   4.241 -2.1959 -1.5910  1.9413
  796EMI     H515113   6.053   0.888   4.079 -0.6999  0.6390  2.0375
  796EMI    C1'15114   5.957   0.525   4.337  0.0532 -0.5559  0.2017
  796EMI    H1'15115   5.992   0.437   4.300  1.1538  0.0937  2.4080
  796EMI    H1'15116   6.026   0.557   4.419  0.0425  0.8575 -0.2565
  796EMI    H1'15117   5.862   0.500   4.383  0.0879  0.0717  1.0630
  796EMI    C1"15118   5.753   0.862   4.028  0.3973  0.4371  0.2583
  796EMI    H1"15119   5.803   0.904   3.942 -0.7428  0.0337  1.5053
  796EMI    H1"15120   5.731   0.951   4.090  1.5289  1.2514  2.1879
  796EMI    C2"15121   5.629   0.776   3.990  0.0162  0.7261 -0.3025
  796EMI    H2"15122   5.669   0.691   3.943  0.4722 -0.9515 -1.3483
  796EMI    H2"15123   5.569   0.744   4.075  2.1007  2.3553 -0.8400
  796EMI    H2"15124   5.558   0.823   3.921 -1.2432 -2.5987 -0.3800
  797EMI     N115125   0.187   3.233   3.957  0.3141  0.3945 -0.4759
  797EMI     C215126   0.241   3.181   4.068  0.6021 -0.7972 -0.5131
  797EMI     N315127   0.148   3.173   4.160 -0.5150 -0.0263  1.0544
  797EMI     C415128   0.034   3.227   4.109 -0.7033  0.3499 -0.1366
  797EMI     C515129   0.051   3.255   3.980 -0.5733 -1.2859  0.0426
  797EMI     H215130   0.349   3.161   4.086  1.5364 -1.8501 -0.7626
  797EMI     H415131  -0.052   3.223   4.174  0.0986 -0.7746  0.4722
  797EMI     H515132  -0.028   3.302   3.916 -1.9317  3.1466  0.2699
  797EMI    C1'15133   0.159   3.129   4.307  0.1294 -0.2059  0.6279
  797EMI    H1'15134   0.141   3.212   4.381 -0.0790  2.5260  2.2333
  797EMI    H1'15135   0.087   3.057   4.327  0.1941  1.9861  3.2727
  797EMI    H1'15136   0.259   3.093   4.316 -3.7126 -0.8627 -0.9027
  797EMI    C1"15137   0.241   3.266   3.830 -0.7403 -0.6924 -0.0336
  797EMI    H1"15138   0.178   3.328   3.767  0.5717  1.4659  0.9254
  797EMI    H1"15139   0.248   3.171   3.779  0.8567 -1.5080 -1.5487
  797EMI    C2"15140   0.380   3.319   3.827  0.3089  0.0035  0.1838
  797EMI    H2"15141   0.455   3.256   3.885 -2.3333  1.5468 -1.6705
  797EMI    H2"15142   0.411   3.340   3.725 -1.2648  0.4810 -1.0562
  797EMI    H2"15143   0.390   3.416   3.879  0.4594  2.6910  2.5212
  798EMI     N115144   0.935   3.155   1.646  0.2266 -0.3699 -0.6066
  798EMI     C215145   0.930   3.202   1.520  0.1063 -1.0684  0.3992
  798EMI     N315146   0.810   3.261   1.507 -0.3470  0.6007  0.7028
  798EMI     C415147   0.741   3.247   1.627  0.2123  0.4896  0.5895
  798EMI     C515148   0.813   3.170   1.713  0.0556 -0.4581 -0.3801
  798EMI     H215149   1.012   3.199   1.446  0.1307 -0.6572  1.1017
  798EMI     H415150   0.634   3.260   1.632  0.2905  0.8376 -1.6338
  798EMI     H515151   0.787   3.143   1.814 -0.7700  3.6541 -2.4121
  798EMI    C1'15152   0.765   3.334   1.389 -0.5103  0.8919 -0.1856
  798EMI    H1'15153   0.659   3.343   1.392  2.9142 -0.2576  1.5892
  798EMI    H1'15154   0.806   3.430   1.403 -2.0050  1.9710  1.0092
  798EMI    H1'15155   0.807   3.288   1.304 -1.2578 -0.0646 -0.3042
  798EMI    C1"15156   1.050   3.075   1.706  0.0107 -0.1757 -0.0440
  798EMI    H1"15157   1.074   2.998   1.644 -1.4318  0.6744 -2.3181
  798EMI    H1"15158   1.015   3.030   1.797 -0.2361 -0.3224 -0.2224
  798EMI    C2"15159   1.174   3.168   1.720 -0.7086  0.2498 -0.4876
  798EMI    H2"15160   1.150   3.244   1.796 -2.1443 -0.0197 -2.2426
  798EMI    H2"15161   1.258   3.107   1.752 -3.3275 -0.1913  0.4312
  798EMI    H2"15162   1.198   3.220   1.629  2.2392  0.4115 -1.4371
  799EMI     N115163   2.834   5.165   6.161 -0.6209 -0.1964 -0.5135
  799EMI     C215164   2.884   5.050   6.117  0.1843 -0.2183  0.0052
  799EMI     N315165   2.814   4.949   6.165  0.1340  0.4858  0.1075
  799EMI     C415166   2.721   4.995   6.248 -0.1776 -0.1558 -0.5098
  799EMI     C515167   2.735   5.132   6.251 -0.1176 -0.1641 -0.1803
  799EMI     H215168   2.980   5.054   6.070  0.3746  0.3743  2.8863
  799EMI     H415169   2.635   4.947   6.295  0.0266  0.1468 -2.1474
  799EMI     H515170   2.671   5.196   6.303 -2.1133 -1.0354  0.6580
  799EMI    C1'15171   2.818   4.811   6.132  0.7851  0.4371  0.0279
  799EMI    H1'15172   2.858   4.790   6.033  0.9252 -0.8399  0.0263
  799EMI    H1'15173   2.884   4.754   6.205  1.8232 -1.3932  0.4543
  799EMI    H1'15174   2.710   4.775   6.138 -2.9640  1.1335  3.7183
  799EMI    C1"15175   2.880   5.302   6.130 -0.1439 -0.1605 -0.1802
  799EMI    H1"15176   2.881   5.308   6.019  2.3922 -0.9905  0.5595
  799EMI    H1"15177   2.985   5.320   6.168  2.3198  0.5012  0.3476
  799EMI    C2"15178   2.786   5.410   6.195 -0.5780 -0.7774  0.1892
  799EMI    H2"15179   2.832   5.509   6.178 -1.1845 -0.1379 -0.9123
  799EMI    H2"15180   2.685   5.405   6.158  1.1148  2.0500 -1.8526
  799EMI    H2"15181   2.789   5.404   6.307 -1.5899 -0.3936 -3.0825
  800EMI     N115182   5.096   4.084   0.294 -0.2883  0.0773 -0.7216
  800EMI     C215183   5.051   4.210   0.292  0.3722  0.1051 -0.0770
  800EMI     N315184   5.011   4.240   0.168 -0.2147 -0.6725  0.1697
  800EMI     C415185   5.019   4.129   0.091 -0.4906 -0.2819  1.1009
  800EMI     C515186   5.070   4.034   0.168  0.3126 -0.0650 -0.1839
  800EMI     H215187   5.044   4.277   0.378  2.9935 -2.9907  1.4596
  800EMI     H415188   4.988   4.131  -0.015  0.7081  1.0935  1.3814
  800EMI     H515189   5.090   3.940   0.135 -2.6135  3.9587  3.5183
  800EMI    C1'15190   4.974   4.375   0.119  0.3872 -0.2023  0.2666
  800EMI    H1'15191   4.900   4.411   0.187 -0.5047  1.8990  0.2448
  800EMI    H1'15192   5.061   4.435   0.129 -1.6607 -0.4924  0.8558
  800EMI    H1'15193   4.941   4.387   0.018 -1.3283 -2.4954 -0.0281
  800EMI    C1"15194   5.138   3.999   0.406 -0.2974  0.1230  0.2614
  800EMI    H1"15195   5.114   3.895   0.389  2.5813  1.3382  2.4102
  800EMI    H1"15196   5.076   4.040   0.484  0.6332  1.8381  1.9698
  800EMI    C2"15197   5.282   4.025   0.428 -0.8226 -0.0654 -0.3071
  800EMI    H2"15198   5.339   4.009   0.337  2.2200  1.1594  2.6261
  800EMI    H2"15199   5.292   4.125   0.467  0.0638  0.5925  0.5226
  800EMI    H2"15200   5.314   3.957   0.504 -2.0861 -0.5177 -3.0134
  801EMI     N115201   2.797   0.957   2.643  0.8198  0.2354  0.5755
  801EMI     C215202   2.909   0.913   2.585  0.1919 -0.1009 -0.2109
  801EMI     N315203   3.005   1.009   2.581 -0.9899 -0.0871 -0.3015
  801EMI     C415204   2.953   1.114   2.649  0.0664  0.0079  0.7539
  801EMI     C515205   2.831   1.085   2.694  0.1950  0.1483  0.6268
  801EMI     H215206   2.916   0.819   2.545 -1.3119 -0.7629  4.4966
  801EMI     H415207   3.017   1.198   2.666 -1.7459 -2.6527  0.1377
  801EMI     H515208   2.774   1.150   2.760 -1.1995  1.3831 -0.4599
  801EMI    C1'15209   3.145   0.994   2.534 -0.6029 -0.2863 -0.3069
  801EMI    H1'15210   3.196   1.086   2.486  0.5966  2.2673 -0.4467
  801EMI    H1'15211   3.219   0.969   2.618  0.4298 -4.3189  2.1134
  801EMI    H1'15212   3.163   0.904   2.479 -1.1479 -0.2235  2.4898
  801EMI    C1"15213   2.663   0.891   2.658  0.7152 -0.0024 -0.3971
  801EMI    H1"15214   2.623   0.933   2.747  2.4817  0.8592 -1.2270
  801EMI    H1"15215   2.671   0.776   2.665  1.7420 -3.0035  1.4840
  801EMI    C2"15216   2.579   0.924   2.534  0.3748  0.2316 -0.5932
  801EMI    H2"15217   2.565   1.031   2.515 -1.2497 -0.3707 -1.4818
  801EMI    H2"15218   2.633   0.889   2.452 -1.7372 -0.7730 -0.4717
  801EMI    H2"15219   2.475   0.874   2.541 -0.7824 -1.9513 -0.3850
  802EMI     N115220   4.959   0.745   4.182 -0.5768 -0.2356 -0.1779
  802EMI     C215221   4.855   0.665   4.149 -0.0353 -0.2211  0.7344
  802EMI     N315222   4.765   0.669   4.247  0.0112  0.4167  0.0714
  802EMI     C415223   4.817   0.740   4.351  0.3979 -0.1431 -0.0294
  802EMI     C515224   4.937   0.793   4.316 -0.6306  0.1814  0.1256
  802EMI     H215225   4.851   0.616   4.059  0.4158  0.7537 -0.9124
  802EMI     H415226   4.765   0.762   4.444  0.2613  0.2878 -3.8407
  802EMI     H515227   5.003   0.859   4.373  1.3354  0.4806  0.1866
  802EMI    C1'15228   4.637   0.594   4.247 -0.6693 -0.0878  0.2415
  802EMI    H1'15229   4.608   0.566   4.350 -0.3639 -0.3075 -0.6826
  802EMI    H1'15230   4.562   0.658   4.199 -3.7950  1.0603  1.8672
  802EMI    H1'15231   4.658   0.495   4.194  2.0960 -1.0071 -0.0185
  802EMI    C1"15232   5.087   0.772   4.108 -0.6919 -0.1162 -0.9056
  802EMI    H1"15233   5.100   0.878   4.091  2.3792 -0.4757  0.3737
  802EMI    H1"15234   5.079   0.716   4.016  0.4963 -2.8341  1.3171
  802EMI    C2"15235   5.193   0.718   4.205  1.0188  0.4825 -0.1712
  802EMI    H2"15236   5.176   0.618   4.242  1.2115 -1.5732  0.7107
  802EMI    H2"15237   5.288   0.716   4.151 -0.0320  1.5375  2.1610
  802EMI    H2"15238   5.211   0.785   4.282 -0.9616  1.6993 -0.9096
  803EMI     N115239   1.520   3.624   1.624 -0.9017  0.1448 -0.0593
  803EMI     C215240   1.543   3.716   1.723  0.6151  0.1939 -0.4071
  803EMI     N315241   1.647   3.790   1.695 -0.2953  0.5073 -0.3011
  803EMI     C415242   1.701   3.748   1.577  0.3058 -0.7617  0.1579
  803EMI     C515243   1.623   3.644   1.534 -0.4042  0.4619  0.2032
  803EMI     H215244   1.485   3.738   1.812  2.5722  0.9442 -0.2143
  803EMI     H415245   1.786   3.793   1.530 -0.9586  0.2133 -0.3569
  803EMI     H515246   1.629   3.579   1.446 -2.1498  0.7495  0.1296
  803EMI    C1'15247   1.721   3.893   1.774  0.3438  0.2595 -0.7931
  803EMI    H1'15248   1.829   3.873   1.760 -2.5517 -0.1224  0.6870
  803EMI    H1'15249   1.705   3.992   1.743 -1.9355 -2.3008 -0.3379
  803EMI    H1'15250   1.703   3.882   1.881 -2.2799  0.1978  2.0393
  803EMI    C1"15251   1.423   3.517   1.610  0.1424 -0.2413 -0.0633
  803EMI    H1"15252   1.439   3.468   1.517  0.7725 -0.6236  0.3471
  803EMI    H1"15253   1.320   3.559   1.612  1.0522  1.1245  0.6475
  803EMI    C2"15254   1.431   3.418   1.728 -0.0056  0.6294  0.0554
  803EMI    H2"15255   1.344   3.353   1.726  1.0642 -0.8891  2.0429
  803EMI    H2"15256   1.531   3.360   1.722  1.8898 -2.9729 -0.2709
  803EMI    H2"15257   1.431   3.488   1.815 -2.5622  1.2112  0.5704
  804EMI     N115258   6.721   5.378   0.997 -0.0678  0.0879 -0.2398
  804EMI     C215259   6.846   5.431   0.979 -0.2277  0.2800  0.2333
  804EMI     N315260   6.882   5.412   0.855 -0.0936  0.3742 -0.0333
  804EMI     C415261   6.774   5.356   0.786  0.2163  0.8468 -0.4763
  804EMI     C515262   6.673   5.325   0.872  0.8078  0.3754  0.3944
  804EMI     H215263   6.900   5.480   1.056  1.5237 -1.1764  0.3921
  804EMI     H415264   6.774   5.337   0.678 -1.4257 -3.0937  1.9788
  804EMI     H515265   6.583   5.275   0.858  2.6713 -0.5300 -0.2113
  804EMI    C1'15266   7.005   5.462   0.786  0.2830  0.2084  0.0078
  804EMI    H1'15267   6.990   5.440   0.678 -0.0117  1.0211  2.7270
  804EMI    H1'15268   7.009   5.566   0.804 -1.8858 -3.0805  1.0177
  804EMI    H1'15269   7.099   5.420   0.822 -0.7251  2.4435 -1.5426
  804EMI    C1"15270   6.668   5.313   1.114 -0.5350  0.4866 -0.4626
  804EMI    H1"15271   6.745   5.302   1.189  1.2228  0.5776 -1.7334
  804EMI    H1"15272   6.630   5.217   1.091  1.0108  1.0519 -1.3747
  804EMI    C2"15273   6.548   5.407   1.164 -0.3432 -0.0355  0.1754
  804EMI    H2"15274   6.461   5.422   1.096  2.2539  0.9899  2.1309
  804EMI    H2"15275   6.515   5.363   1.264  1.2011 -1.1169  1.8329
  804EMI    H2"15276   6.586   5.500   1.201 -0.9659  1.2983 -0.1980
  805EMI     N115277   5.948   2.321   5.617  0.1229  0.4032 -0.2394
  805EMI     C215278   5.896   2.444   5.653 -0.8612  0.1174  0.2665
  805EMI     N315279   5.775   2.427   5.711  0.9699 -0.1675  0.0515
  805EMI     C415280   5.745   2.295   5.718 -0.3399 -0.6645  0.1978
  805EMI     C515281   5.847   2.234   5.652 -0.2353 -0.6561  0.6244
  805EMI     H215282   5.947   2.535   5.635  1.2296 -2.7668  1.3725
  805EMI     H415283   5.665   2.251   5.772  1.3660 -2.2600 -0.4583
  805EMI     H515284   5.849   2.129   5.634 -1.1338  1.8454 -0.0542
  805EMI    C1'15285   5.698   2.525   5.782 -0.0513 -0.6044 -0.3525
  805EMI    H1'15286   5.764   2.602   5.810 -1.9746 -3.3050 -1.2855
  805EMI    H1'15287   5.624   2.562   5.712 -2.0503 -0.7133  0.2880
  805EMI    H1'15288   5.647   2.477   5.862 -0.0516 -1.1606  0.1842
  805EMI    C1"15289   6.075   2.280   5.547  0.4721  0.1170  0.2831
  805EMI    H1"15290   6.090   2.166   5.547  1.8339 -0.0712 -0.9712
  805EMI    H1"15291   6.162   2.323   5.587 -0.7605 -2.2744 -0.7740
  805EMI    C2"15292   6.068   2.311   5.402 -0.0362  0.3698 -0.5337
  805EMI    H2"15293   5.978   2.263   5.370  2.7507 -0.4404 -1.7717
  805EMI    H2"15294   6.073   2.416   5.379  1.9082  1.7299 -1.6152
  805EMI    H2"15295   6.156   2.266   5.359 -2.9861 -0.2915  2.4793
  806EMI     N115296   0.455   6.704   2.399  0.7415 -0.2444 -0.1400
  806EMI     C215297   0.461   6.603   2.488  0.1629  0.3291 -0.4769
  806EMI     N315298   0.574   6.533   2.468 -0.0697 -0.5954 -0.7949
  806EMI     C415299   0.632   6.584   2.353 -0.1099  0.3479  0.0862
  806EMI     C515300   0.560   6.689   2.311  0.5750 -0.6287  0.4092
  806EMI     H215301   0.390   6.592   2.565  0.5141 -2.5700 -1.1764
  806EMI     H415302   0.728   6.551   2.309 -0.7313  0.9654  1.1772
  806EMI     H515303   0.590   6.756   2.233  0.8983 -2.1731  2.0595
  806EMI    C1'15304   0.621   6.421   2.542 -0.1132  0.5382 -0.2657
  806EMI    H1'15305   0.595   6.327   2.498  1.0655  1.0846  0.1206
  806EMI    H1'15306   0.732   6.424   2.552  0.1899  1.3444  0.1819
  806EMI    H1'15307   0.564   6.416   2.636 -2.3948 -2.0243 -2.0062
  806EMI    C1"15308   0.340   6.790   2.375 -0.1314 -0.7128 -0.0147
  806EMI    H1"15309   0.343   6.847   2.278  1.3730  2.0523  0.0538
  806EMI    H1"15310   0.331   6.872   2.448  3.4207  1.8975  0.5501
  806EMI    C2"15311   0.205   6.714   2.380 -0.2779 -0.9554  0.0709
  806EMI    H2"15312   0.124   6.792   2.369  0.1715  1.1134  0.2696
  806EMI    H2"15313   0.209   6.645   2.300  1.8398 -1.6248  0.6827
  806EMI    H2"15314   0.188   6.662   2.475 -1.6206 -0.7010 -3.2859
  807EMI     N115315   3.979   2.761   4.432  0.7155  0.2178  0.0066
  807EMI     C215316   3.992   2.699   4.312 -0.1097  0.4677 -0.4348
  807EMI     N315317   3.961   2.780   4.209  0.5817  0.2678  0.0458
  807EMI     C415318   3.941   2.902   4.270  0.0397 -0.2782  0.3985
  807EMI     C515319   3.944   2.892   4.404 -0.1380  1.0649 -0.3497
  807EMI     H215320   4.028   2.599   4.298 -0.3993  1.0808  1.2474
  807EMI     H415321   3.901   2.989   4.219 -1.3051  1.1452 -1.9791
  807EMI     H515322   3.911   2.977   4.464  0.5873  0.9979  0.6170
  807EMI    C1'15323   3.975   2.749   4.063 -0.0316 -0.0898  0.1955
  807EMI    H1'15324   3.872   2.760   4.031 -2.2150  1.0327  0.5531
  807EMI    H1'15325   4.031   2.837   4.018  0.1170 -2.6342  1.2009
  807EMI    H1'15326   4.023   2.651   4.047 -3.4093 -0.0197 -1.3450
  807EMI    C1"15327   4.014   2.713   4.568 -0.1183  0.0769  0.0813
  807EMI    H1"15328   3.953   2.628   4.592  0.0964  2.4256 -2.5455
  807EMI    H1"15329   4.000   2.799   4.632  0.5746  1.5651  1.6216
  807EMI    C2"15330   4.158   2.665   4.567 -0.1890 -0.1138 -0.6883
  807EMI    H2"15331   4.226   2.756   4.553 -0.2721  1.0741 -0.3018
  807EMI    H2"15332   4.167   2.610   4.663  2.7121 -0.8068 -0.3204
  807EMI    H2"15333   4.168   2.589   4.490 -2.4127 -0.4141 -1.5397
  808EMI     N115334   5.190   5.138   5.650 -0.2257 -0.2664  0.1519
  808EMI     C215335   5.277   5.119   5.752  0.2690 -0.1774  0.3503
  808EMI     N315336   5.368   5.025   5.714  0.2338  0.1687 -0.0024
  808EMI     C415337   5.346   4.989   5.583  0.2165 -0.0148 -0.0724
  808EMI     C515338   5.239   5.059   5.541 -0.1393 -0.0039 -0.6601
  808EMI     H215339   5.263   5.163   5.853  1.8301  2.2958  0.4440
  808EMI     H415340   5.407   4.925   5.516  0.3348  1.0147  0.3762
  808EMI     H515341   5.195   5.045   5.441  3.1914  1.2936  0.6314
  808EMI    C1'15342   5.466   4.956   5.799  0.7686 -0.5225 -0.5862
  808EMI    H1'15343   5.439   4.852   5.811 -2.2607 -1.1795 -2.5121
  808EMI    H1'15344   5.558   4.973   5.750 -3.6375  0.2340 -1.2310
  808EMI    H1'15345   5.454   5.001   5.897 -0.2682  2.9668  0.8239
  808EMI    C1"15346   5.067   5.223   5.636  1.0562  0.0283 -0.1374
  808EMI    H1"15347   4.982   5.167   5.618  1.1220  1.4418 -1.7005
  808EMI    H1"15348   5.072   5.283   5.547 -0.0923  0.8064  1.8521
  808EMI    C2"15349   5.047   5.316   5.757 -0.2698 -0.2579 -0.0080
  808EMI    H2"15350   5.056   5.252   5.842  1.0020  0.4582 -3.3462
  808EMI    H2"15351   5.120   5.393   5.756  0.3320  0.2217  1.2156
  808EMI    H2"15352   4.944   5.356   5.757 -2.3728  1.7916  1.4164
  809EMI     N115353   4.159   6.197   1.447 -0.1742 -0.3079 -0.3078
  809EMI     C215354   4.045   6.246   1.499  0.0359  0.0226  0.1781
  809EMI     N315355   3.959   6.276   1.404 -0.1418  0.3518  0.3239
  809EMI     C415356   4.026   6.270   1.284 -0.2777 -0.2973  0.8326
  809EMI     C515357   4.147   6.223   1.309  0.1725  0.4047  0.3342
  809EMI     H215358   4.024   6.252   1.603  1.8748 -0.9825 -0.6802
  809EMI     H415359   3.989   6.294   1.186 -1.4240 -2.1008  0.1534
  809EMI     H515360   4.227   6.204   1.242 -0.6682  0.8282 -0.1892
  809EMI    C1'15361   3.826   6.328   1.424  0.2166  0.8069  0.9445
  809EMI    H1'15362   3.825   6.421   1.479 -0.4218  1.6425 -0.5016
  809EMI    H1'15363   3.763   6.333   1.336 -0.8451  0.9791  0.2889
  809EMI    H1'15364   3.780   6.255   1.493  2.8746  0.6514 -1.2591
  809EMI    C1"15365   4.282   6.134   1.507  0.1075 -0.1492 -0.0074
  809EMI    H1"15366   4.369   6.131   1.438  4.5217  1.1788 -0.9213
  809EMI    H1"15367   4.265   6.032   1.528 -0.0694 -0.5949  1.1376
  809EMI    C2"15368   4.326   6.196   1.641  0.0128 -0.1088 -0.2028
  809EMI    H2"15369   4.261   6.167   1.724  0.7955 -1.7851 -0.1505
  809EMI    H2"15370   4.422   6.154   1.658 -3.4099  0.3391 -1.6477
  809EMI    H2"15371   4.323   6.304   1.624  0.7614 -0.9061 -0.5932
  810EMI     N115372   3.556   2.972   6.497  0.1504  0.5355 -0.4941
  810EMI     C215373   3.546   3.103   6.526 -0.2294 -0.2580  0.3688
  810EMI     N315374   3.480   3.164   6.427 -0.5637  0.4072  0.6213
  810EMI     C415375   3.454   3.066   6.329 -0.0772 -0.8517  0.2548
  810EMI     C515376   3.498   2.947   6.374 -0.0207  0.2024 -0.3463
  810EMI     H215377   3.602   3.155   6.606  2.4742  1.4114 -2.2842
  810EMI     H415378   3.400   3.094   6.242  2.6123  0.0466  0.6080
  810EMI     H515379   3.489   2.851   6.320 -1.3879  3.0155 -2.8186
  810EMI    C1'15380   3.456   3.306   6.393 -0.4327 -0.2728 -0.9495
  810EMI    H1'15381   3.494   3.364   6.484 -0.9602 -0.9987 -0.2207
  810EMI    H1'15382   3.529   3.326   6.313  0.9709 -0.4382 -1.7689
  810EMI    H1'15383   3.353   3.333   6.374  0.2113  0.1693 -0.4352
  810EMI    C1"15384   3.627   2.866   6.571  0.3179  0.2683  0.0170
  810EMI    H1"15385   3.698   2.824   6.508 -1.3678  0.3326  1.4177
  810EMI    H1"15386   3.554   2.788   6.602 -0.8524  0.5810  3.7534
  810EMI    C2"15387   3.691   2.916   6.697  0.5161 -0.1225  0.9394
  810EMI    H2"15388   3.752   3.007   6.681 -2.8679  0.5845  0.3033
  810EMI    H2"15389   3.615   2.934   6.781 -2.1720 -0.6240 -2.5304
  810EMI    H2"15390   3.760   2.842   6.728  1.4920  2.1372 -2.9756
  811EMI     N115391   4.888   4.775   0.326 -0.1056  0.2607  0.7611
  811EMI     C215392   4.823   4.677   0.390 -0.6766  0.3152  0.6051
  811EMI     N315393   4.700   4.648   0.338 -0.0412  0.2263 -0.0891
  811EMI     C415394   4.678   4.746   0.245  0.5606 -0.0725  0.0911
  811EMI     C515395   4.792   4.819   0.234  0.9642 -0.5248 -0.3185
  811EMI     H215396   4.871   4.626   0.467 -0.9793  0.8749  0.4239
  811EMI     H415397   4.588   4.771   0.187 -2.2461 -0.3099  2.2138
  811EMI     H515398   4.806   4.906   0.171  1.1924 -1.2873 -2.7492
  811EMI    C1'15399   4.591   4.571   0.393 -0.2182 -0.1721 -0.6806
  811EMI    H1'15400   4.508   4.561   0.321 -1.4397  0.5785  1.4623
  811EMI    H1'15401   4.637   4.479   0.421  1.7202  1.2913  0.7731
  811EMI    H1'15402   4.562   4.610   0.485  2.2936 -0.1122 -1.1277
  811EMI    C1"15403   5.005   4.851   0.370 -0.3461 -0.8034 -0.2470
  811EMI    H1"15404   5.067   4.892   0.289  1.4193 -0.9126 -2.6234
  811EMI    H1"15405   5.061   4.779   0.430 -1.6605  0.0422  2.1566
  811EMI    C2"15406   4.966   4.966   0.460 -0.0501 -0.7629 -0.3352
  811EMI    H2"15407   4.919   4.941   0.554 -2.0676  0.1540  1.5731
  811EMI    H2"15408   5.061   5.014   0.483 -0.5846  0.1727 -1.6337
  811EMI    H2"15409   4.909   5.047   0.412 -1.2903  2.8029  0.9344
  812EMI     N115410   3.698   5.668   6.608 -0.1374 -0.0561  0.2694
  812EMI     C215411   3.592   5.609   6.547  0.2694 -0.1108 -0.7643
  812EMI     N315412   3.645   5.546   6.440  0.0400  0.2635  0.6970
  812EMI     C415413   3.780   5.569   6.435  0.1950  0.6965 -0.5338
  812EMI     C515414   3.815   5.637   6.545 -0.5059  0.4038  0.2583
  812EMI     H215415   3.486   5.624   6.572 -0.7863  2.0367  1.6223
  812EMI     H415416   3.858   5.531   6.370 -1.7882  1.6754 -0.3073
  812EMI     H515417   3.923   5.671   6.554  1.3613  1.6705  0.0452
  812EMI    C1'15418   3.583   5.475   6.333  0.7172 -0.6904  0.7302
  812EMI    H1'15419   3.475   5.466   6.342  2.7229  1.7190 -0.4876
  812EMI    H1'15420   3.606   5.517   6.241  0.1362  0.1801  2.3508
  812EMI    H1'15421   3.627   5.379   6.330  0.1701  1.4899 -1.2808
  812EMI    C1"15422   3.701   5.747   6.733 -0.5864  0.3317  0.8270
  812EMI    H1"15423   3.757   5.842   6.717 -1.6909  1.9998  0.8669
  812EMI    H1"15424   3.763   5.688   6.801 -1.2679  1.5979 -1.6194
  812EMI    C2"15425   3.565   5.778   6.798  0.2101 -0.0181  0.1812
  812EMI    H2"15426   3.502   5.852   6.739 -5.4546  1.0625 -0.3453
  812EMI    H2"15427   3.507   5.688   6.820 -1.0422 -0.0984  1.0377
  812EMI    H2"15428   3.585   5.835   6.890 -1.4842  1.4541 -0.8176
  813EMI     N115429   1.740   2.200   3.687  0.3097 -0.1832 -0.2687
  813EMI     C215430   1.677   2.226   3.806  0.2064  0.4893  0.1001
  813EMI     N315431   1.763   2.270   3.901 -0.6190 -0.1727 -0.0585
  813EMI     C415432   1.881   2.280   3.833 -0.3321  0.3286 -0.6375
  813EMI     C515433   1.863   2.238   3.707 -0.2182  0.6646  0.4568
  813EMI     H215434   1.578   2.197   3.827  3.5114 -3.5638 -1.2440
  813EMI     H415435   1.972   2.319   3.875  0.8215 -1.3445  0.4413
  813EMI     H515436   1.935   2.248   3.627 -3.6480  0.3409 -0.4991
  813EMI    C1'15437   1.746   2.323   4.032 -0.3646 -0.4254 -0.2311
  813EMI    H1'15438   1.790   2.257   4.104  2.8772  3.0784 -0.3429
  813EMI    H1'15439   1.787   2.430   4.032  0.8535  3.0760  0.2815
  813EMI    H1'15440   1.643   2.339   4.057  1.9018 -1.9836 -2.2321
  813EMI    C1"15441   1.689   2.162   3.558  0.3642 -0.4060 -0.1771
  813EMI    H1"15442   1.773   2.114   3.505  0.8281 -1.4592 -0.2037
  813EMI    H1"15443   1.658   2.252   3.504 -0.4594 -1.4392  1.2709
  813EMI    C2"15444   1.560   2.079   3.581  0.1823  0.5353  0.3899
  813EMI    H2"15445   1.516   2.050   3.484  2.1733  1.4279  3.1896
  813EMI    H2"15446   1.582   1.993   3.647 -0.0736  0.7941  1.5499
  813EMI    H2"15447   1.483   2.133   3.627  2.8672 -1.6414  2.3735
  814EMI     N115448   2.410   2.598   5.418 -0.5563  0.8494 -0.3711
  814EMI     C215449   2.415   2.723   5.475 -0.5522  1.0107 -0.2558
  814EMI     N315450   2.426   2.811   5.381 -0.4220 -0.3705 -0.5295
  814EMI     C415451   2.442   2.741   5.260  0.1696 -0.2094 -0.3451
  814EMI     C515452   2.436   2.610   5.282  0.0178 -0.5291  0.1446
  814EMI     H215453   2.417   2.753   5.580 -0.4401  0.0906 -0.9743
  814EMI     H415454   2.442   2.789   5.168 -1.9762 -0.6153  2.3275
  814EMI     H515455   2.433   2.527   5.211  1.1081 -1.3909 -1.3050
  814EMI    C1'15456   2.426   2.955   5.400  0.0068  0.2072 -0.3583
  814EMI    H1'15457   2.354   2.996   5.329 -1.3261 -1.6501 -0.1639
  814EMI    H1'15458   2.392   2.973   5.502 -1.2703  0.2740  0.8754
  814EMI    H1'15459   2.528   2.987   5.391  2.3773  0.1782  0.4997
  814EMI    C1"15460   2.393   2.462   5.483  0.0231  0.7807 -0.1933
  814EMI    H1"15461   2.454   2.380   5.446  0.3436 -0.3615  0.3014
  814EMI    H1"15462   2.291   2.433   5.471  1.6975  0.1849  2.3966
  814EMI    C2"15463   2.410   2.465   5.633 -0.2937 -0.4763 -0.2400
  814EMI    H2"15464   2.368   2.559   5.674  1.5751 -2.3061  1.9773
  814EMI    H2"15465   2.365   2.379   5.686  1.7235  2.0411  1.2947
  814EMI    H2"15466   2.518   2.455   5.636 -0.9451 -0.4273 -0.2397
  815EMI     N115467   6.437   4.511   5.695 -0.2782 -0.0440  0.0789
  815EMI     C215468   6.361   4.415   5.759 -0.0853  0.0689 -0.2238
  815EMI     N315469   6.271   4.363   5.677 -0.0509  0.4680  0.2792
  815EMI     C415470   6.295   4.416   5.558  0.0715 -0.4597  0.1483
  815EMI     C515471   6.397   4.507   5.559 -0.4239 -0.7964 -1.1606
  815EMI     H215472   6.371   4.391   5.863 -0.7063 -1.6779  1.2203
  815EMI     H415473   6.248   4.390   5.464 -1.0788 -0.1383 -4.4621
  815EMI     H515474   6.432   4.555   5.462 -1.4188  1.1674 -4.5322
  815EMI    C1'15475   6.163   4.269   5.707  0.3193  0.0095  0.2982
  815EMI    H1'15476   6.131   4.212   5.621  0.7423  2.9493 -1.9557
  815EMI    H1'15477   6.199   4.199   5.778 -1.3785 -0.6047 -1.8198
  815EMI    H1'15478   6.073   4.320   5.742  1.5874 -0.5134  2.7375
  815EMI    C1"15479   6.547   4.596   5.739  0.3098 -0.4298 -0.0992
  815EMI    H1"15480   6.542   4.591   5.848 -0.1042  1.5323  0.5852
  815EMI    H1"15481   6.503   4.694   5.706 -0.8194  0.7949  0.9653
  815EMI    C2"15482   6.676   4.562   5.669 -0.0716 -0.5512 -0.5398
  815EMI    H2"15483   6.736   4.643   5.705 -0.6757  0.2364 -2.2086
  815EMI    H2"15484   6.709   4.467   5.704 -0.0187  1.0796  2.3104
  815EMI    H2"15485   6.670   4.563   5.560 -0.2732 -3.5870 -0.6967
  816EMI     N115486   3.786   4.868   6.329  0.5144  0.3136 -0.3494
  816EMI     C215487   3.772   4.795   6.213 -0.3460 -0.0061 -0.4319
  816EMI     N315488   3.829   4.858   6.113 -0.0431 -0.4274 -0.0054
  816EMI     C415489   3.870   4.984   6.156  0.1213 -0.6168  0.1691
  816EMI     C515490   3.848   4.987   6.293 -0.0605 -0.2561  0.2781
  816EMI     H215491   3.733   4.692   6.194  0.1274  0.3801 -2.4202
  816EMI     H415492   3.922   5.067   6.097  1.2383  1.7846 -0.1238
  816EMI     H515493   3.862   5.063   6.368  0.4498 -1.0632 -0.2375
  816EMI    C1'15494   3.852   4.823   5.980 -0.3852 -0.0646 -0.0539
  816EMI    H1'15495   3.813   4.907   5.919  2.5092 -0.2318 -1.5570
  816EMI    H1'15496   3.959   4.814   5.958  0.0515 -1.4198 -1.0585
  816EMI    H1'15497   3.791   4.733   5.960  0.0985 -0.7902  0.2852
  816EMI    C1"15498   3.754   4.836   6.477  0.6603  0.3892 -0.6412
  816EMI    H1"15499   3.774   4.927   6.532 -0.5597  3.4017 -0.9894
  816EMI    H1"15500   3.815   4.749   6.506 -0.4962 -1.1538  0.9716
  816EMI    C2"15501   3.604   4.810   6.484  0.0843  0.1576  0.2239
  816EMI    H2"15502   3.585   4.814   6.587  0.0696  0.0201 -1.2622
  816EMI    H2"15503   3.550   4.900   6.442 -1.7200  0.1425  0.4866
  816EMI    H2"15504   3.563   4.713   6.441  1.0251  0.3789  2.0098
  817EMI     N115505   4.912   5.749   0.563 -1.0411 -0.3974  0.5700
  817EMI     C215506   4.899   5.872   0.618  0.5198  0.1877  0.5994
  817EMI     N315507   4.778   5.881   0.678 -0.6852  0.7143 -0.0724
  817EMI     C415508   4.712   5.767   0.650  0.7565  0.5392  0.7714
  817EMI     C515509   4.794   5.681   0.583  0.0627 -0.4675 -0.1179
  817EMI     H215510   4.981   5.940   0.635  0.1819 -0.7602 -0.8132
  817EMI     H415511   4.613   5.741   0.680 -2.5475  0.6206 -2.5121
  817EMI     H515512   4.778   5.571   0.567  1.0073 -0.3327 -3.3121
  817EMI    C1'15513   4.719   5.984   0.767 -0.0097 -0.0185  0.0075
  817EMI    H1'15514   4.699   6.082   0.720 -0.6748 -0.1632  1.3672
  817EMI    H1'15515   4.641   5.945   0.835  2.0616 -2.4767  1.2091
  817EMI    H1'15516   4.805   6.021   0.824 -0.3522  1.0427  1.3481
  817EMI    C1"15517   5.023   5.689   0.495  0.6765 -0.8108  0.3842
  817EMI    H1"15518   5.101   5.769   0.495  3.8576 -1.9361 -0.2680
  817EMI    H1"15519   4.988   5.660   0.404  1.6633  0.0603  1.2143
  817EMI    C2"15520   5.076   5.564   0.564  0.1432  0.0722  0.4074
  817EMI    H2"15521   5.165   5.533   0.511 -0.2929  0.6728 -0.9580
  817EMI    H2"15522   5.094   5.602   0.660 -1.9962  1.4012 -1.0512
  817EMI    H2"15523   5.005   5.478   0.577  0.8901  0.8515  0.1526
  818EMI     N115524   5.848   6.242   3.315 -0.8542 -0.1378 -0.4635
  818EMI     C215525   5.976   6.216   3.274  0.2966 -0.1234 -0.4942
  818EMI     N315526   6.048   6.215   3.388 -0.0272  0.0105  0.4137
  818EMI     C415527   5.976   6.258   3.495 -0.5308  0.7184 -0.0471
  818EMI     C515528   5.847   6.274   3.450  0.1875 -0.2755  0.2094
  818EMI     H215529   6.006   6.190   3.175 -0.1641 -0.9760 -0.1238
  818EMI     H415530   6.009   6.263   3.593 -2.2440 -1.4942 -0.6157
  818EMI     H515531   5.763   6.302   3.518 -0.9824 -0.8022  0.7868
  818EMI    C1'15532   6.193   6.188   3.387 -0.0128  0.1758  0.0212
  818EMI    H1'15533   6.250   6.230   3.470  2.1524  1.4374 -0.1964
  818EMI    H1'15534   6.211   6.085   3.371  1.2504 -0.0518  1.6622
  818EMI    H1'15535   6.228   6.242   3.295  0.0021 -3.2415 -0.8554
  818EMI    C1"15536   5.725   6.253   3.230  0.2607 -0.2482 -0.0667
  818EMI    H1"15537   5.755   6.268   3.126  1.4289  1.2044 -3.7848
  818EMI    H1"15538   5.649   6.330   3.258 -1.1787  0.2553 -1.0197
  818EMI    C2"15539   5.646   6.124   3.245 -0.1317 -0.7478  0.3793
  818EMI    H2"15540   5.557   6.137   3.190 -0.6126 -1.0043 -1.1188
  818EMI    H2"15541   5.701   6.045   3.201 -1.4677 -0.0367 -1.3238
  818EMI    H2"15542   5.617   6.101   3.349  2.5968  2.0317  1.1700
  819EMI     N115543   6.161   0.758   3.428  0.3622 -0.0962 -0.1964
  819EMI     C215544   6.221   0.719   3.313  0.2644 -0.0083  0.1017
  819EMI     N315545   6.263   0.834   3.242  0.3747  0.5890 -0.1679
  819EMI     C415546   6.216   0.948   3.314 -0.4261  0.6594 -0.2445
  819EMI     C515547   6.160   0.899   3.429 -0.1185  0.5764  0.1092
  819EMI     H215548   6.248   0.611   3.300  0.7092  1.3611 -1.2767
  819EMI     H415549   6.233   1.050   3.288  0.2409 -0.5743 -0.0832
  819EMI     H515550   6.123   0.963   3.509  2.4175  4.0046 -1.5457
  819EMI    C1'15551   6.372   0.857   3.153  0.0101 -0.0996 -0.1649
  819EMI    H1'15552   6.363   0.948   3.091  1.5415 -1.4334 -0.5860
  819EMI    H1'15553   6.472   0.865   3.197  1.5740  1.0879 -0.5735
  819EMI    H1'15554   6.388   0.770   3.087  1.4090  2.4291 -0.4480
  819EMI    C1"15555   6.104   0.684   3.542  0.0557  0.3860 -0.0905
  819EMI    H1"15556   6.025   0.621   3.501 -0.3083 -1.6243  0.6695
  819EMI    H1"15557   6.055   0.757   3.606 -0.7254 -0.0012 -0.6057
  819EMI    C2"15558   6.211   0.613   3.613  0.9181 -0.0038  0.3223
  819EMI    H2"15559   6.296   0.677   3.641  1.7520  2.8305  2.4199
  819EMI    H2"15560   6.163   0.591   3.708 -0.0002  0.6197 -0.7797
  819EMI    H2"15561   6.240   0.525   3.555  1.3562  0.1405  0.0971
  820EMI     N115562   5.900   6.597   5.953 -0.4194 -0.6471 -0.0271
  820EMI     C215563   5.804   6.540   5.886 -1.0501 -0.0413  0.2326
  820EMI     N315564   5.850   6.437   5.809 -0.1868 -0.2624 -0.5807
  820EMI     C415565   5.986   6.433   5.834 -0.4958  0.3787 -0.2083
  820EMI     C515566   6.016   6.531   5.923 -0.1777  0.8151  0.3644
  820EMI     H215567   5.700   6.568   5.905  0.8965 -1.2278  0.8204
  820EMI     H415568   6.061   6.353   5.805  0.7922  0.9852  2.0764
  820EMI     H515569   6.117   6.549   5.963  0.7750  0.4945 -3.3016
  820EMI    C1'15570   5.772   6.334   5.728 -0.3509  1.4093  0.3967
  820EMI    H1'15571   5.678   6.323   5.785  1.5605 -0.4795  1.7531
  820EMI    H1'15572   5.741   6.365   5.625 -1.1382 -0.5939 -0.1340
  820EMI    H1'15573   5.825   6.238   5.733  0.5358  1.1332 -2.7877
  820EMI    C1"15574   5.894   6.727   6.040 -0.5054 -0.2436  0.9101
  820EMI    H1"15575   5.947   6.798   5.980 -0.2596 -2.8916  0.3684
  820EMI    H1"15576   5.952   6.729   6.134 -1.8925  2.0346  0.9275
  820EMI    C2"15577   5.752   6.780   6.051 -0.3362  0.4873 -0.3380
  820EMI    H2"15578   5.747   6.876   6.104 -2.0764 -0.0588 -1.5333
  820EMI    H2"15579   5.704   6.802   5.961  3.6362 -2.0435  1.1729
  820EMI    H2"15580   5.699   6.697   6.103 -0.3783 -0.8942  0.1255
  821EMI     N115581   6.069   1.621   0.988 -0.2144 -0.2294 -0.3190
  821EMI     C215582   6.106   1.624   1.117  0.1182  0.5000  0.5691
  821EMI     N315583   6.215   1.698   1.130 -0.6979 -0.2764  0.8786
  821EMI     C415584   6.244   1.748   1.008  0.5345  0.3477  0.3358
  821EMI     C515585   6.153   1.707   0.923  0.3102  0.0735  0.1071
  821EMI     H215586   6.048   1.576   1.202 -1.0236 -0.4877  0.9801
  821EMI     H415587   6.323   1.821   0.995 -1.0635 -1.0380 -0.1139
  821EMI     H515588   6.142   1.744   0.820  0.1805 -2.8397 -3.2700
  821EMI    C1'15589   6.293   1.743   1.241  0.4445  0.1417 -0.3907
  821EMI    H1'15590   6.234   1.822   1.300 -0.1178  0.5468 -1.5155
  821EMI    H1'15591   6.292   1.655   1.313 -0.4116 -3.3536 -1.3634
  821EMI    H1'15592   6.386   1.781   1.205  0.5473  0.1287  1.1695
  821EMI    C1"15593   5.976   1.528   0.927 -0.2370  0.6387 -0.2610
  821EMI    H1"15594   5.963   1.442   0.993  0.3464 -0.8989 -2.2100
  821EMI    H1"15595   6.006   1.498   0.832  1.1380  0.4372  3.0295
  821EMI    C2"15596   5.845   1.603   0.906  0.1061  0.2169 -0.8242
  821EMI    H2"15597   5.807   1.644   1.000  1.0208  2.7601  2.7918
  821EMI    H2"15598   5.855   1.682   0.838  2.6096  1.4254 -0.1172
  821EMI    H2"15599   5.759   1.533   0.869 -0.7920 -1.4658 -0.9127
  822EMI     N115600   3.715   2.521   5.183 -1.0397 -0.3742 -0.2340
  822EMI     C215601   3.763   2.443   5.279 -0.0922  1.2448 -0.2148
  822EMI     N315602   3.780   2.316   5.232 -0.5859  0.3683 -0.2114
  822EMI     C415603   3.746   2.323   5.098  0.0582 -0.1875  0.0792
  822EMI     C515604   3.699   2.443   5.068 -0.7383 -0.7523 -0.8353
  822EMI     H215605   3.785   2.464   5.380  3.0775  1.7173 -0.3006
  822EMI     H415606   3.757   2.254   5.017  1.3792 -0.8922  1.1111
  822EMI     H515607   3.673   2.476   4.969  1.0945 -3.1287  0.5884
  822EMI    C1'15608   3.815   2.189   5.298  0.7759  0.5199  0.1374
  822EMI    H1'15609   3.883   2.207   5.386  0.8088  0.3653  3.5433
  822EMI    H1'15610   3.729   2.132   5.335 -0.9466  1.0674 -0.2884
  822EMI    H1'15611   3.860   2.125   5.217 -1.8665 -0.7712  0.5355
  822EMI    C1"15612   3.695   2.667   5.181  0.3696  0.1133 -0.0417
  822EMI    H1"15613   3.588   2.685   5.221 -0.5693  0.6237 -0.7554
  822EMI    H1"15614   3.699   2.703   5.085  0.9379  0.2246 -2.1616
  822EMI    C2"15615   3.783   2.756   5.270  0.7172 -0.1022 -1.0122
  822EMI    H2"15616   3.744   2.858   5.240 -1.9094  1.2800  1.6834
  822EMI    H2"15617   3.755   2.725   5.373  1.3432 -1.8794 -0.2377
  822EMI    H2"15618   3.889   2.729   5.240 -0.0617  0.2472  1.9259
  823EMI     N115619   4.264   5.823   4.829 -0.3599  0.3230  0.3318
  823EMI     C215620   4.345   5.817   4.936  0.0601  0.1460  0.1110
  823EMI     N315621   4.291   5.892   5.030 -0.0151 -0.4234  0.1591
  823EMI     C415622   4.173   5.946   4.994 -0.1700  0.4821 -0.3142
  823EMI     C515623   4.156   5.900   4.868  0.2419 -0.4070 -0.7580
  823EMI     H215624   4.439   5.759   4.936  2.2341 -0.1018 -2.6539
  823EMI     H415625   4.098   5.992   5.058  0.8917  1.6462  1.7213
  823EMI     H515626   4.067   5.908   4.812 -0.4261 -0.1258  0.9218
  823EMI    C1'15627   4.339   5.914   5.168 -0.6513 -0.0203 -0.0359
  823EMI    H1'15628   4.406   5.993   5.176  1.0483  1.3730  0.8328
  823EMI    H1'15629   4.260   5.937   5.241  0.2755 -0.3737 -0.6735
  823EMI    H1'15630   4.384   5.814   5.195 -0.4808 -1.8905  1.2205
  823EMI    C1"15631   4.277   5.760   4.693  0.2615 -0.1058  0.3153
  823EMI    H1"15632   4.379   5.760   4.651  2.6658 -1.5770  0.3505
  823EMI    H1"15633   4.208   5.811   4.624 -0.3086  0.7158 -0.1682
  823EMI    C2"15634   4.230   5.612   4.692  0.1790 -0.4085  0.2508
  823EMI    H2"15635   4.231   5.587   4.583 -0.6621  2.7553 -2.3702
  823EMI    H2"15636   4.287   5.552   4.757 -0.0413 -0.5879 -2.7051
  823EMI    H2"15637   4.119   5.611   4.710 -1.7577 -2.0940 -2.0021
  824EMI     N115638   1.678   4.193   1.047 -0.0067 -0.4068 -0.2613
  824EMI     C215639   1.597   4.291   1.085  0.2339 -0.7945 -0.1251
  824EMI     N315640   1.663   4.390   1.154  0.5291 -0.0894  0.3558
  824EMI     C415641   1.791   4.349   1.160 -0.0299 -0.6948  0.0512
  824EMI     C515642   1.802   4.229   1.100  0.1388 -0.0666  0.4782
  824EMI     H215643   1.490   4.285   1.079 -2.2732  0.6455 -0.0484
  824EMI     H415644   1.868   4.409   1.207  0.4755 -0.0503 -0.1409
  824EMI     H515645   1.894   4.175   1.070  1.0605  0.5915 -0.6909
  824EMI    C1'15646   1.612   4.504   1.233 -0.2970  0.4481 -0.2859
  824EMI    H1'15647   1.530   4.550   1.192  2.1059  1.8855 -2.0970
  824EMI    H1'15648   1.590   4.472   1.330 -0.6566  2.1416 -0.2057
  824EMI    H1'15649   1.698   4.575   1.257  1.5532  0.0230 -0.5570
  824EMI    C1"15650   1.638   4.076   0.975 -0.3519  0.7864 -0.4824
  824EMI    H1"15651   1.726   4.043   0.918 -0.5964 -2.8171  1.2779
  824EMI    H1"15652   1.558   4.117   0.916 -3.2783  0.3643 -2.0845
  824EMI    C2"15653   1.589   3.972   1.078  0.2814 -0.7692 -0.5139
  824EMI    H2"15654   1.648   3.970   1.170  1.0184 -2.4157  0.1993
  824EMI    H2"15655   1.491   3.990   1.101  0.6980 -0.4770 -0.5038
  824EMI    H2"15656   1.602   3.871   1.029  0.8900  1.1834  0.5083
  825EMI     N115657   5.549   0.785   0.663  0.3987 -0.1255  0.1964
  825EMI     C215658   5.473   0.780   0.775  0.0458  0.7673  0.2207
  825EMI     N315659   5.349   0.734   0.747 -0.0823 -0.3250  0.0892
  825EMI     C415660   5.346   0.716   0.611 -0.8179  0.1424 -0.2436
  825EMI     C515661   5.473   0.742   0.558  0.4439  0.3768 -0.6810
  825EMI     H215662   5.511   0.794   0.874  1.3145 -0.3840 -2.4477
  825EMI     H415663   5.265   0.680   0.547 -0.6350  1.2026 -0.6243
  825EMI     H515664   5.501   0.727   0.456  0.1620 -1.1531  2.0434
  825EMI    C1'15665   5.230   0.708   0.826 -0.5712  0.1099  0.5369
  825EMI    H1'15666   5.242   0.608   0.876 -0.2696 -0.6011 -0.7347
  825EMI    H1'15667   5.205   0.780   0.896 -1.4432 -3.6414 -2.6452
  825EMI    H1'15668   5.150   0.685   0.750  0.9921 -0.4590 -0.8783
  825EMI    C1"15669   5.691   0.834   0.650  0.0169 -0.6868 -0.0210
  825EMI    H1"15670   5.760   0.774   0.711  0.1179  1.5553  0.6031
  825EMI    H1"15671   5.693   0.935   0.692  3.8903 -1.5970 -0.9006
  825EMI    C2"15672   5.746   0.839   0.507 -0.4992  0.0376 -0.0773
  825EMI    H2"15673   5.781   0.734   0.476 -2.3359 -1.3011  3.1602
  825EMI    H2"15674   5.667   0.867   0.441  1.0209  1.5097 -0.4980
  825EMI    H2"15675   5.831   0.912   0.509 -0.1854  0.0627  2.3348
  826EMI     N115676   6.785   6.727   3.933  0.6940 -0.3157 -0.0577
  826EMI     C215677   6.692   6.767   3.846  0.2744  0.2676  0.3400
  826EMI     N315678   6.707   6.709   3.723  0.3527  0.1947  0.3790
  826EMI     C415679   6.812   6.620   3.738  0.2823 -0.5612 -0.1149
  826EMI     C515680   6.856   6.632   3.863  0.1670 -0.1055  0.2439
  826EMI     H215681   6.613   6.839   3.869 -3.1171  3.3470  0.6058
  826EMI     H415682   6.838   6.550   3.661 -0.2853 -0.3014 -0.0348
  826EMI     H515683   6.931   6.566   3.919 -0.4234 -0.9833 -1.0393
  826EMI    C1'15684   6.634   6.722   3.593 -0.0895 -0.6152 -0.2629
  826EMI    H1'15685   6.549   6.789   3.597  0.2247 -3.4336  4.8322
  826EMI    H1'15686   6.705   6.741   3.520 -1.6359 -1.0881  1.9514
  826EMI    H1'15687   6.601   6.625   3.571  0.9342 -0.0800 -1.1282
  826EMI    C1"15688   6.806   6.756   4.077  0.2762 -0.3910 -0.3975
  826EMI    H1"15689   6.801   6.867   4.092 -0.3823  0.3659  0.4211
  826EMI    H1"15690   6.909   6.725   4.103 -0.4474 -3.3402 -1.9716
  826EMI    C2"15691   6.695   6.681   4.158 -0.7636 -0.3681 -0.1805
  826EMI    H2"15692   6.695   6.573   4.144  1.3024  2.1056  0.0908
  826EMI    H2"15693   6.706   6.707   4.263  0.5653 -0.4470 -0.0447
  826EMI    H2"15694   6.597   6.717   4.125  3.3940  1.5767 -1.7966
  827EMI     N115695   2.833   0.502   4.325  0.3813  0.2069 -0.3392
  827EMI     C215696   2.744   0.588   4.378  0.1895 -0.2096  0.4938
  827EMI     N315697   2.757   0.708   4.324  0.1030  0.1468  0.3370
  827EMI     C415698   2.853   0.699   4.223 -0.5286 -0.3206 -0.5571
  827EMI     C515699   2.898   0.575   4.222 -1.2856  0.1362  0.9038
  827EMI     H215700   2.671   0.561   4.454  0.5084  1.8772 -1.8684
  827EMI     H415701   2.889   0.772   4.148 -2.1615 -0.4779 -2.4629
  827EMI     H515702   2.971   0.538   4.156 -0.2126  1.2461  2.6226
  827EMI    C1'15703   2.686   0.835   4.351  0.0874 -0.1342 -0.3572
  827EMI    H1'15704   2.756   0.910   4.390 -0.2255 -0.2950  2.1158
  827EMI    H1'15705   2.635   0.878   4.263 -0.1374 -0.8584 -1.3578
  827EMI    H1'15706   2.606   0.815   4.425 -1.7801 -1.0269 -1.9973
  827EMI    C1"15707   2.865   0.360   4.353  0.0459 -0.3437  0.1330
  827EMI    H1"15708   2.843   0.325   4.449 -0.3719  2.1190 -1.9706
  827EMI    H1"15709   2.972   0.342   4.336 -1.2650  0.1256 -1.6617
  827EMI    C2"15710   2.797   0.267   4.255 -0.0475 -0.1082 -0.4934
  827EMI    H2"15711   2.836   0.294   4.154 -0.8067  0.9224 -0.8460
  827EMI    H2"15712   2.829   0.165   4.280  0.6762 -0.2373 -0.2320
  827EMI    H2"15713   2.695   0.268   4.263  0.5804  3.5849 -0.0710
  828EMI     N115714   2.090   6.485   3.439  0.5279  0.2776  0.4068
  828EMI     C215715   2.035   6.545   3.544 -0.0932  0.3033 -0.0806
  828EMI     N315716   2.022   6.453   3.644 -0.1436  0.1593  0.2700
  828EMI     C415717   2.074   6.334   3.601 -0.6666  0.0770 -0.0274
  828EMI     C515718   2.125   6.358   3.476  0.7074  0.4374  0.5552
  828EMI     H215719   1.993   6.644   3.552 -0.4026 -0.7541 -1.6407
  828EMI     H415720   2.085   6.247   3.661 -0.2455  2.0922 -2.3422
  828EMI     H515721   2.182   6.294   3.422  0.0954 -0.2331  2.2543
  828EMI    C1'15722   1.957   6.468   3.775 -1.2102  0.6693  0.4643
  828EMI    H1'15723   1.933   6.374   3.824  0.7086  2.5620 -1.7292
  828EMI    H1'15724   2.029   6.517   3.834 -0.6001 -1.3583  0.5076
  828EMI    H1'15725   1.868   6.522   3.756 -0.9182  0.5005 -0.9388
  828EMI    C1"15726   2.143   6.539   3.308  0.5592 -0.2566  0.3254
  828EMI    H1"15727   2.098   6.636   3.293  1.4981  3.2418 -0.5348
  828EMI    H1"15728   2.108   6.469   3.229 -0.4856 -0.0508 -0.6305
  828EMI    C2"15729   2.294   6.541   3.312  0.0960 -0.0556 -0.4585
  828EMI    H2"15730   2.334   6.436   3.325 -0.2972 -2.8184  1.5714
  828EMI    H2"15731   2.343   6.592   3.238  2.7938 -3.3628  2.2004
  828EMI    H2"15732   2.321   6.611   3.400  1.0379  1.3262  0.8174
  829EMI     N115733   0.391   6.818   3.739  0.2937 -0.8893 -0.0660
  829EMI     C215734   0.387   6.809   3.875  0.9020  0.1760  0.1415
  829EMI     N315735   0.303   6.906   3.919  0.3780  0.0540 -0.6537
  829EMI     C415736   0.259   6.980   3.807  0.5735  0.1081 -0.0475
  829EMI     C515737   0.325   6.930   3.706  0.4366 -0.1779  1.1249
  829EMI     H215738   0.444   6.729   3.927  0.6991 -2.7613 -2.7953
  829EMI     H415739   0.191   7.062   3.807  2.0213 -0.1873 -0.1773
  829EMI     H515740   0.320   6.961   3.599 -0.6029 -0.0782  0.5524
  829EMI    C1'15741   0.279   6.947   4.061 -0.0558  0.4253 -0.3605
  829EMI    H1'15742   0.200   7.019   4.074 -1.8066 -2.9143  0.1419
  829EMI    H1'15743   0.249   6.865   4.124  1.7348 -0.9454  1.3257
  829EMI    H1'15744   0.369   6.999   4.098  0.2950  0.8085  3.0879
  829EMI    C1"15745   0.467   6.728   3.653 -0.7732  0.3447  0.3284
  829EMI    H1"15746   0.554   6.710   3.714 -0.9448  0.5631 -1.2652
  829EMI    H1"15747   0.511   6.773   3.557  1.5402 -0.1752 -5.1448
  829EMI    C2"15748   0.400   6.589   3.631 -0.1555  0.7047 -0.2250
  829EMI    H2"15749   0.467   6.507   3.653  0.8277  0.9658  0.7296
  829EMI    H2"15750   0.327   6.575   3.705  1.5695  1.2439 -0.2143
  829EMI    H2"15751   0.362   6.572   3.534  0.8076 -1.6597 -0.0060
  830EMI     N115752   4.796   2.699   3.959  0.2814 -0.4402  0.1888
  830EMI     C215753   4.839   2.674   3.829 -0.2168 -0.3786 -0.4294
  830EMI     N315754   4.874   2.543   3.820 -0.4239 -0.2647  0.7069
  830EMI     C415755   4.863   2.488   3.941  0.2086 -0.2997 -0.3557
  830EMI     C515756   4.812   2.581   4.019  0.3057 -0.2247  0.4110
  830EMI     H215757   4.819   2.752   3.753  0.9458 -1.4438 -2.2822
  830EMI     H415758   4.888   2.385   3.980  1.1422  1.2923  1.1690
  830EMI     H515759   4.782   2.572   4.123 -0.6569  0.2339 -1.1337
  830EMI    C1'15760   4.895   2.454   3.710 -0.2233 -0.4405 -0.3890
  830EMI    H1'15761   4.829   2.377   3.714  2.4311 -1.9674  0.9866
  830EMI    H1'15762   4.903   2.509   3.615 -0.0414 -0.9806 -1.1702
  830EMI    H1'15763   4.996   2.411   3.719 -0.0356 -0.8959  1.2275
  830EMI    C1"15764   4.764   2.820   4.030 -0.7782 -0.3989  0.5090
  830EMI    H1"15765   4.861   2.870   4.051 -0.4683 -1.2024 -1.7152
  830EMI    H1"15766   4.723   2.793   4.131  1.3484 -1.2628 -0.6281
  830EMI    C2"15767   4.669   2.918   3.947 -0.6584 -0.3049  0.1785
  830EMI    H2"15768   4.569   2.880   3.924  1.8364  1.0375 -2.9611
  830EMI    H2"15769   4.668   3.005   4.001  0.2980 -1.5700  0.0733
  830EMI    H2"15770   4.718   2.949   3.851 -1.7423  0.5879  0.4370
  831EMI     N115771   0.393   6.094   2.105 -0.3295 -0.1522  0.1763
  831EMI     C215772   0.362   6.054   1.981 -0.7522 -0.3966  0.7245
  831EMI     N315773   0.330   5.923   1.985  0.3876  0.4127 -0.0543
  831EMI     C415774   0.356   5.873   2.107  0.0129 -0.2499  0.4518
  831EMI     C515775   0.395   5.977   2.188 -0.2761 -0.3883 -0.4169
  831EMI     H215776   0.349   6.117   1.889 -0.4873 -1.6489 -0.8077
  831EMI     H415777   0.338   5.769   2.130  0.9983  0.1113 -1.4062
  831EMI     H515778   0.425   5.969   2.289 -0.6348 -3.6734 -1.9278
  831EMI    C1'15779   0.269   5.839   1.884  0.2308 -0.4766 -0.2172
  831EMI    H1'15780   0.165   5.861   1.862 -2.8588 -1.7380 -3.2518
  831EMI    H1'15781   0.322   5.851   1.788  2.5282  1.1110  0.0944
  831EMI    H1'15782   0.280   5.726   1.905  0.2207 -1.9866 -1.2726
  831EMI    C1"15783   0.407   6.235   2.156  0.2506 -0.3143  0.6753
  831EMI    H1"15784   0.428   6.279   2.069  0.5768  0.1457 -0.3639
  831EMI    H1"15785   0.495   6.254   2.216 -0.0617  0.1900  2.1752
  831EMI    C2"15786   0.277   6.286   2.217  0.0942 -0.3982 -0.4193
  831EMI    H2"15787   0.252   6.217   2.297  1.5325 -0.2285  0.2857
  831EMI    H2"15788   0.291   6.384   2.265  0.5633 -1.9237 -0.2393
  831EMI    H2"15789   0.208   6.294   2.129 -0.1664 -0.4036 -0.2949
  832EMI     N115790   1.998   4.741   2.882  0.0795  0.6266 -0.0096
  832EMI     C215791   1.894   4.751   2.970  0.0944 -0.9000  0.3894
  832EMI     N315792   1.927   4.834   3.070  0.6672  0.0335  0.7915
  832EMI     C415793   2.046   4.890   3.036 -0.3493 -0.0327  0.0822
  832EMI     C515794   2.092   4.831   2.927 -0.8950 -0.4932  0.2023
  832EMI     H215795   1.806   4.689   2.960 -0.6419  4.7762 -1.9460
  832EMI     H415796   2.094   4.963   3.098 -0.8156  0.3194  2.3322
  832EMI     H515797   2.194   4.855   2.889 -0.8045 -3.2681  0.9444
  832EMI    C1'15798   1.867   4.859   3.200  0.2615 -0.3447  0.7247
  832EMI    H1'15799   1.841   4.964   3.208 -0.9078 -1.3226  0.3554
  832EMI    H1'15800   1.776   4.806   3.206 -0.2211  2.4345 -1.3579
  832EMI    H1'15801   1.937   4.832   3.276  1.0354 -1.0046  0.2714
  832EMI    C1"15802   2.033   4.632   2.786  0.7186  0.6892 -0.7422
  832EMI    H1"15803   1.960   4.553   2.791 -0.8409  3.0773  0.2750
  832EMI    H1"15804   2.128   4.576   2.814 -1.2721 -1.0257 -1.2067
  832EMI    C2"15805   2.036   4.669   2.639 -0.0823 -0.4029 -0.3153
  832EMI    H2"15806   2.041   4.578   2.581  2.9692 -1.9311 -2.9491
  832EMI    H2"15807   1.950   4.729   2.604 -1.6127 -1.8352  1.7436
  832EMI    H2"15808   2.138   4.725   2.632  0.0592  0.2684 -0.4026
  833EMI     N115809   4.085   0.718   6.811 -0.1121 -0.1573 -0.6000
  833EMI     C215810   4.172   0.631   6.866  0.5823  0.1352  0.0778
  833EMI     N315811   4.104   0.552   6.949  0.2254 -0.0793  1.1746
  833EMI     C415812   3.975   0.571   6.922 -0.5837  0.2337 -0.5722
  833EMI     C515813   3.961   0.678   6.843 -0.5274 -0.2302  0.0293
  833EMI     H215814   4.278   0.639   6.844 -0.9993 -0.2205 -4.7601
  833EMI     H415815   3.887   0.521   6.962 -0.0153 -0.1355  0.6596
  833EMI     H515816   3.865   0.730   6.835 -0.8985 -0.9415 -1.8785
  833EMI    C1'15817   4.145   0.441   7.031 -0.2778  0.4033 -0.2106
  833EMI    H1'15818   4.109   0.345   6.994  0.9164  0.1024 -0.0171
  833EMI    H1'15819   4.250   0.438   7.044 -0.4520  0.6033  1.1306
  833EMI    H1'15820   4.104   0.453   7.126  0.9797 -0.4273  3.2689
  833EMI    C1"15821   4.112   0.843   6.735  0.1216  0.5102  0.1960
  833EMI    H1"15822   4.029   0.849   6.661  0.2912 -0.3452  0.5966
  833EMI    H1"15823   4.211   0.838   6.686  2.0150 -1.6008 -2.3005
  833EMI    C2"15824   4.092   0.970   6.824  0.1432 -0.1627 -0.8584
  833EMI    H2"15825   4.103   1.052   6.754 -1.0792  0.1014  0.1076
  833EMI    H2"15826   3.994   0.964   6.862  2.6630  1.7885  0.1983
  833EMI    H2"15827   4.157   0.962   6.901 -1.3661 -0.1339 -0.0124
  834EMI     N115828   0.609   4.187   3.431 -0.6042 -0.5578 -0.0026
  834EMI     C215829   0.486   4.199   3.389 -0.1710  0.7518 -0.0546
  834EMI     N315830   0.473   4.318   3.318  0.4820 -0.0595 -0.4696
  834EMI     C415831   0.593   4.369   3.307 -0.4300  0.3208 -0.1669
  834EMI     C515832   0.680   4.291   3.366 -0.3096 -0.2023  0.2669
  834EMI     H215833   0.399   4.144   3.415  0.5416  1.6679  0.2673
  834EMI     H415834   0.616   4.455   3.240 -0.1318 -0.6623 -1.9583
  834EMI     H515835   0.789   4.296   3.368  3.1086 -0.6990 -0.5503
  834EMI    C1'15836   0.355   4.384   3.269 -0.7937  0.3513  0.0770
  834EMI    H1'15837   0.294   4.321   3.205 -1.6644  1.7467 -0.3924
  834EMI    H1'15838   0.288   4.426   3.346  1.1023  3.6116 -2.9218
  834EMI    H1'15839   0.388   4.469   3.205  0.3774 -0.7859  0.3771
  834EMI    C1"15840   0.676   4.069   3.494 -0.1678  0.6145 -0.3407
  834EMI    H1"15841   0.784   4.091   3.508 -1.9008 -0.8046 -0.7596
  834EMI    H1"15842   0.664   3.986   3.427 -0.3574 -0.0840 -0.9262
  834EMI    C2"15843   0.621   4.053   3.638 -0.0041 -0.2977  0.1001
  834EMI    H2"15844   0.650   4.133   3.700  0.4983  0.6533  1.0641
  834EMI    H2"15845   0.512   4.029   3.637 -0.3493 -0.7249  1.5500
  834EMI    H2"15846   0.678   3.969   3.688 -2.7152  0.4997  1.1488
  835EMI     N115847   5.411   0.012   5.373 -0.3674  0.0600  0.5521
  835EMI     C215848   5.441  -0.094   5.447  0.5282  0.1042  0.7554
  835EMI     N315849   5.497  -0.054   5.560  0.0090 -0.8445  0.2589
  835EMI     C415850   5.483   0.082   5.563 -0.3487  0.5916 -0.2255
  835EMI     C515851   5.430   0.121   5.444  0.0596  0.4775 -0.9377
  835EMI     H215852   5.444  -0.198   5.411  1.1338 -1.8987 -0.1089
  835EMI     H415853   5.523   0.151   5.640  0.5050  1.7584  0.7472
  835EMI     H515854   5.415   0.218   5.407 -1.1865  0.4775 -1.8282
  835EMI    C1'15855   5.555  -0.121   5.672 -1.0276 -0.1302 -0.1537
  835EMI    H1'15856   5.647  -0.066   5.704 -2.3363  0.7862  1.5300
  835EMI    H1'15857   5.496  -0.142   5.768 -1.4063 -0.7988  1.2968
  835EMI    H1'15858   5.593  -0.222   5.643 -1.1465  1.4532  1.1228
  835EMI    C1"15859   5.379   0.025   5.227 -0.0728 -0.1739  0.4825
  835EMI    H1"15860   5.389   0.130   5.202  0.2647 -2.1822 -0.0818
  835EMI    H1"15861   5.274  -0.003   5.210  0.1959 -1.8600 -3.1453
  835EMI    C2"15862   5.478  -0.046   5.135  0.4057 -0.4654  0.2775
  835EMI    H2"15863   5.462  -0.155   5.140 -0.8139  1.2551 -0.4677
  835EMI    H2"15864   5.468  -0.025   5.022 -2.6700  2.6315 -1.9714
  835EMI    H2"15865   5.580  -0.032   5.166 -0.2531  1.0669  0.6112
  836EMI     N115866   3.726   1.939   4.135 -0.3480  0.1184 -0.3746
  836EMI     C215867   3.754   1.977   4.259  0.9698 -0.1432 -0.0300
  836EMI     N315868   3.821   1.880   4.319 -0.0456  0.2734  0.1466
  836EMI     C415869   3.836   1.781   4.230 -0.8249  0.1343 -0.2435
  836EMI     C515870   3.778   1.816   4.114  0.0269 -0.0697  1.2626
  836EMI     H215871   3.720   2.057   4.318  1.3528 -0.3390  0.0132
  836EMI     H415872   3.890   1.689   4.255  0.3999 -0.3583  0.5255
  836EMI     H515873   3.775   1.748   4.020 -2.0683  0.3269  0.4154
  836EMI    C1'15874   3.865   1.867   4.455  0.0826  0.1969 -0.8057
  836EMI    H1'15875   3.781   1.839   4.515 -3.3035 -2.4387 -1.5910
  836EMI    H1'15876   3.957   1.802   4.462 -0.0549  2.1866 -3.5336
  836EMI    H1'15877   3.891   1.966   4.495 -4.6109  1.4354 -1.7777
  836EMI    C1"15878   3.648   2.004   4.025  1.0974 -0.0559 -0.2380
  836EMI    H1"15879   3.552   2.016   4.060  0.8351  0.9934 -1.1861
  836EMI    H1"15880   3.650   1.935   3.938  0.7395  0.8040 -0.7887
  836EMI    C2"15881   3.708   2.140   3.991 -0.4366  1.0408  0.2105
  836EMI    H2"15882   3.806   2.124   3.943  0.8307  4.0258 -1.8005
  836EMI    H2"15883   3.654   2.196   3.918 -0.4597  0.8479  0.5608
  836EMI    H2"15884   3.719   2.196   4.082  0.8754  0.4081 -0.9086
  837EMI     N115885   6.051   6.255   6.198  0.2541 -0.4000  0.1930
  837EMI     C215886   6.166   6.324   6.187  0.1381  1.3010  0.8844
  837EMI     N315887   6.259   6.250   6.248  0.0940 -0.3944 -0.3333
  837EMI     C415888   6.212   6.120   6.261  0.4260 -0.1705 -0.3605
  837EMI     C515889   6.080   6.127   6.241  0.3143 -0.3943  0.4721
  837EMI     H215890   6.182   6.429   6.157  2.7088  3.3860  1.9039
  837EMI     H415891   6.264   6.028   6.298 -0.1566  0.6331  0.5361
  837EMI     H515892   6.012   6.046   6.253 -0.6088  1.3147  1.3085
  837EMI    C1'15893   6.399   6.279   6.281 -0.2614 -0.1197  0.4205
  837EMI    H1'15894   6.457   6.189   6.260 -0.0218  1.2623 -1.6646
  837EMI    H1'15895   6.421   6.376   6.235 -0.5998 -0.7041  2.0532
  837EMI    H1'15896   6.397   6.304   6.382 -0.6919 -2.9006 -0.9999
  837EMI    C1"15897   5.908   6.294   6.199  0.1993 -0.2878  0.0124
  837EMI    H1"15898   5.840   6.217   6.243 -1.2445 -2.3076  3.3721
  837EMI    H1"15899   5.877   6.305   6.089  1.0768  1.9486  0.5979
  837EMI    C2"15900   5.868   6.422   6.265 -0.0872  0.3545 -0.5882
  837EMI    H2"15901   5.891   6.422   6.370  0.6869  1.2942  1.0045
  837EMI    H2"15902   5.921   6.501   6.212 -0.8096 -2.1302  0.9644
  837EMI    H2"15903   5.760   6.443   6.260  1.9345  1.0991 -1.5531
  838EMI     N115904   5.932   6.085   1.420 -0.8998 -0.0039  0.3521
  838EMI     C215905   5.942   5.961   1.476 -0.1538  0.0733  0.4260
  838EMI     N315906   5.873   5.942   1.583  0.6744  0.0712 -0.1615
  838EMI     C415907   5.819   6.066   1.608 -0.3309 -0.3387 -0.1780
  838EMI     C515908   5.843   6.150   1.504  0.5929 -0.8846  0.3912
  838EMI     H215909   6.008   5.887   1.429 -0.9938 -1.0896  0.5495
  838EMI     H415910   5.745   6.085   1.682 -0.9152 -0.4541 -0.8653
  838EMI     H515911   5.796   6.246   1.482  0.5340  1.4089 -3.4239
  838EMI    C1'15912   5.849   5.816   1.658  0.3781  0.0486  0.5537
  838EMI    H1'15913   5.751   5.792   1.642  0.9711  0.2049 -0.2418
  838EMI    H1'15914   5.895   5.731   1.616 -0.9646  2.1319 -0.5335
  838EMI    H1'15915   5.863   5.819   1.767 -2.8607  1.4495 -0.9240
  838EMI    C1"15916   5.979   6.133   1.287  0.6650 -0.5061 -0.1784
  838EMI    H1"15917   5.956   6.241   1.284  0.1925  1.1875 -0.1654
  838EMI    H1"15918   5.926   6.077   1.208 -1.6593 -1.2503 -0.7890
  838EMI    C2"15919   6.133   6.103   1.279 -0.7990 -0.4517 -0.0483
  838EMI    H2"15920   6.152   6.001   1.299 -0.1251  0.6657 -1.9629
  838EMI    H2"15921   6.178   6.145   1.185 -0.6824  0.4828 -0.9023
  838EMI    H2"15922   6.169   6.161   1.364 -0.4458 -0.0403  0.4010
  839EMI     N115923   4.566   6.086   6.742  0.1650  0.1239 -0.2195
  839EMI     C215924   4.645   6.168   6.670  0.4566  0.0163 -0.6687
  839EMI     N315925   4.626   6.142   6.539 -0.2937 -0.0186 -0.4338
  839EMI     C415926   4.529   6.045   6.531 -0.6651 -1.2949  0.2284
  839EMI     C515927   4.492   6.013   6.650 -0.2505  1.1257 -0.4092
  839EMI     H215928   4.713   6.241   6.717  0.6648  0.8469 -1.2108
  839EMI     H415929   4.486   6.006   6.441 -2.2777 -0.2366  1.1353
  839EMI     H515930   4.411   5.943   6.667 -2.2845 -3.2590  0.6863
  839EMI    C1'15931   4.686   6.198   6.417  0.1671 -0.6064 -0.6899
  839EMI    H1'15932   4.636   6.288   6.391 -0.1260 -0.7085  0.4154
  839EMI    H1'15933   4.793   6.227   6.439  2.5418  2.1989 -0.9845
  839EMI    H1'15934   4.676   6.138   6.326 -1.3890 -1.2025  0.5893
  839EMI    C1"15935   4.553   6.068   6.882 -1.3936  0.4585  0.3148
  839EMI    H1"15936   4.630   6.130   6.930 -0.0254 -2.2116 -3.4504
  839EMI    H1"15937   4.560   5.965   6.902  0.0160  0.7001 -2.3584
  839EMI    C2"15938   4.409   6.118   6.922  0.0827  0.5867 -0.1896
  839EMI    H2"15939   4.342   6.033   6.884 -1.0410 -1.7048  0.7388
  839EMI    H2"15940   4.407   6.127   7.025  1.0256  0.0829 -0.9959
  839EMI    H2"15941   4.374   6.204   6.865 -1.1771 -2.2116  0.6258
  840EMI     N115942   4.216   3.910   0.713  0.5987 -0.4875  0.4136
  840EMI     C215943   4.191   3.900   0.581  0.4606  0.1634 -0.0029
  840EMI     N315944   4.146   3.776   0.559  0.6710 -0.1595 -0.3542
  840EMI     C415945   4.137   3.709   0.672 -0.1378  0.3616  0.3648
  840EMI     C515946   4.186   3.789   0.771 -0.0474  0.5158 -0.0150
  840EMI     H215947   4.205   3.982   0.502 -0.7403  1.6495  1.0414
  840EMI     H415948   4.099   3.605   0.672  0.9643 -2.2381 -0.4809
  840EMI     H515949   4.186   3.764   0.875  1.3236 -0.9921 -0.4236
  840EMI    C1'15950   4.108   3.714   0.433  0.7890  0.7013 -0.9875
  840EMI    H1'15951   4.198   3.689   0.373  0.4937  0.7562 -2.2078
  840EMI    H1'15952   4.062   3.617   0.443  2.1872 -0.3853  2.2563
  840EMI    H1'15953   4.031   3.766   0.368 -1.1338 -0.8584 -1.3165
  840EMI    C1"15954   4.257   4.029   0.792  0.3643 -0.1828 -0.1513
  840EMI    H1"15955   4.219   4.015   0.896  0.0904 -0.7071  1.3113
  840EMI    H1"15956   4.213   4.114   0.736  0.9549  2.0357 -1.8590
  840EMI    C2"15957   4.408   4.042   0.793 -0.3916 -0.1468 -0.0441
  840EMI    H2"15958   4.438   4.147   0.813  0.0443  1.0889 -0.7822
  840EMI    H2"15959   4.443   3.974   0.869  1.7569  2.4592  1.0262
  840EMI    H2"15960   4.453   4.016   0.700  1.1907  3.2883 -0.8838
  841EMI     N115961   3.048   3.375   4.093  0.5364  0.0050  0.3482
  841EMI     C215962   3.106   3.457   4.183  0.8247  0.4286 -0.1685
  841EMI     N315963   3.127   3.577   4.125  0.1531  0.2553  0.2808
  841EMI     C415964   3.060   3.575   3.999 -0.2669 -0.5267 -0.2481
  841EMI     C515965   3.019   3.447   3.982  0.0043 -0.2642  0.3764
  841EMI     H215966   3.140   3.433   4.286 -2.1527 -1.8879  0.4905
  841EMI     H415967   3.039   3.659   3.934  2.2374 -1.2315  0.0914
  841EMI     H515968   2.964   3.417   3.890 -1.5816  1.1579  3.3164
  841EMI    C1'15969   3.201   3.689   4.176  0.1067  0.5574  0.2863
  841EMI    H1'15970   3.188   3.692   4.283 -0.4502 -1.8432 -2.1383
  841EMI    H1'15971   3.303   3.671   4.156 -0.2434 -0.5203 -1.6371
  841EMI    H1'15972   3.161   3.786   4.132 -3.0651 -0.6965 -0.3471
  841EMI    C1"15973   3.000   3.234   4.101  0.4381 -0.2005  0.4564
  841EMI    H1"15974   3.032   3.182   4.012  1.1913  1.5911  0.3678
  841EMI    H1"15975   2.889   3.233   4.106 -0.4256 -0.5425 -0.9610
  841EMI    C2"15976   3.063   3.158   4.217 -0.5919  0.0021 -0.0617
  841EMI    H2"15977   3.036   3.208   4.313 -2.7337  2.6737  1.0950
  841EMI    H2"15978   3.024   3.056   4.217 -0.1006  0.6539  0.6205
  841EMI    H2"15979   3.176   3.148   4.195  3.3641 -0.1599 -0.3864
  842EMI     N115980   4.992   5.909   5.765  0.1214  0.5518 -0.2856
  842EMI     C215981   5.080   6.005   5.808 -0.1826 -0.6500 -0.3189
  842EMI     N315982   5.055   6.120   5.744  0.3577 -0.0628  0.1910
  842EMI     C415983   4.942   6.093   5.670 -0.5509  0.0251  1.0133
  842EMI     C515984   4.909   5.962   5.676 -0.1107 -0.5267 -0.1970
  842EMI     H215985   5.161   5.996   5.877  0.4365 -0.3996  0.8030
  842EMI     H415986   4.897   6.165   5.605 -2.7759 -0.8327  2.7747
  842EMI     H515987   4.835   5.906   5.625 -1.6429  0.5484  0.2072
  842EMI    C1'15988   5.124   6.245   5.745  0.0021  0.1275 -0.3967
  842EMI    H1'15989   5.192   6.239   5.829 -1.7376 -1.2616  2.5292
  842EMI    H1'15990   5.189   6.269   5.665  0.3801 -0.5284  1.5286
  842EMI    H1'15991   5.050   6.332   5.751 -0.0768  0.2486  0.9136
  842EMI    C1"15992   4.990   5.764   5.788  0.4987  0.0167 -0.0506
  842EMI    H1"15993   5.067   5.733   5.864  3.7524 -1.6983  0.0987
  842EMI    H1"15994   5.019   5.715   5.695 -0.5062  1.8848  0.0670
  842EMI    C2"15995   4.858   5.712   5.837 -0.1204 -0.4702 -0.3129
  842EMI    H2"15996   4.791   5.707   5.753 -0.2473  0.7220  0.9510
  842EMI    H2"15997   4.864   5.613   5.864  2.6540 -0.2185  0.5451
  842EMI    H2"15998   4.818   5.786   5.912  1.5799  1.6705  2.1144
  843EMI     N115999   1.958   1.591   3.179 -0.5353 -0.3870  0.5350
  843EMI     C216000   2.093   1.565   3.166  0.5449 -0.3372 -0.8013
  843EMI     N316001   2.134   1.627   3.053 -0.3101  0.0968  0.2241
  843EMI     C416002   2.025   1.696   2.998 -0.5573 -0.0243 -0.5769
  843EMI     C516003   1.915   1.668   3.070  0.0052  0.2275 -0.4506
  843EMI     H216004   2.146   1.502   3.234  0.3509  1.4611 -0.2149
  843EMI     H416005   2.031   1.758   2.910 -0.0610  1.0748  0.5217
  843EMI     H516006   1.818   1.704   3.045 -1.0065 -1.6780  0.2788
  843EMI    C1'16007   2.270   1.632   2.988 -0.2242  1.0741  0.0495
  843EMI    H1'16008   2.283   1.720   2.921  2.3305 -1.5658 -0.3934
  843EMI    H1'16009   2.345   1.636   3.067  0.7353  1.7052  1.5507
  843EMI    H1'16010   2.279   1.546   2.924 -0.2012  1.5644 -0.4680
  843EMI    C1"16011   1.871   1.530   3.286  0.3009 -0.6248  0.2267
  843EMI    H1"16012   1.915   1.447   3.340  1.5315  1.0775 -1.0592
  843EMI    H1"16013   1.792   1.482   3.232  1.3300 -0.0147 -0.7756
  843EMI    C2"16014   1.815   1.626   3.380 -0.7239  0.0751  0.4808
  843EMI    H2"16015   1.737   1.686   3.334  0.4305 -0.9276 -0.0493
  843EMI    H2"16016   1.771   1.568   3.463  0.2061 -0.8849 -0.3098
  843EMI    H2"16017   1.893   1.688   3.424 -1.1409  0.1663 -0.1657
  844EMI     N116018   1.644   4.387   0.453 -0.0840 -0.3294  0.1589
  844EMI     C216019   1.761   4.315   0.443 -0.1928 -0.9795 -0.1626
  844EMI     N316020   1.847   4.384   0.360  0.0348 -0.0810  0.0442
  844EMI     C416021   1.787   4.503   0.332  0.0365  0.4260 -0.7300
  844EMI     C516022   1.663   4.501   0.378  0.1475 -0.9036 -0.4281
  844EMI     H216023   1.783   4.217   0.486  1.7518  0.1338  0.6602
  844EMI     H416024   1.822   4.581   0.271  0.2840  0.6481  0.1092
  844EMI     H516025   1.591   4.584   0.361 -0.2957 -2.0251  1.7131
  844EMI    C1'16026   1.979   4.360   0.305  0.5323 -0.0329 -0.2540
  844EMI    H1'16027   2.022   4.272   0.351  0.2598 -0.3428 -0.3823
  844EMI    H1'16028   1.968   4.330   0.198  0.3319  0.3457 -0.5861
  844EMI    H1'16029   2.045   4.442   0.317 -0.8084 -0.2310 -0.7963
  844EMI    C1"16030   1.523   4.354   0.533 -0.5115 -0.2054 -0.4078
  844EMI    H1"16031   1.507   4.450   0.593 -0.7594  0.9527 -1.7426
  844EMI    H1"16032   1.538   4.283   0.618 -0.7523 -0.3860  2.3105
  844EMI    C2"16033   1.408   4.307   0.449 -0.6839 -0.0507 -0.6158
  844EMI    H2"16034   1.372   4.394   0.382  0.2013  2.4623  2.5178
  844EMI    H2"16035   1.441   4.227   0.377 -0.2539  1.5344 -1.3221
  844EMI    H2"16036   1.318   4.272   0.501 -0.9781  1.2040 -2.3602
  845EMI     N116037   4.382   3.666   4.903  0.1933 -0.7170  0.3254
  845EMI     C216038   4.497   3.631   4.853 -1.1685 -0.3455 -0.0352
  845EMI     N316039   4.584   3.597   4.951 -0.1827 -0.1885 -0.1277
  845EMI     C416040   4.520   3.609   5.072 -0.2212  1.0706  0.0394
  845EMI     C516041   4.394   3.649   5.040 -0.7034  0.2346 -0.8163
  845EMI     H216042   4.526   3.626   4.749  0.5934 -0.5943  0.5274
  845EMI     H416043   4.554   3.574   5.170 -0.2292  0.6589 -1.8952
  845EMI     H516044   4.316   3.673   5.115 -2.8105  0.5453 -0.4353
  845EMI    C1'16045   4.717   3.539   4.940 -0.1539  0.0662 -0.1464
  845EMI    H1'16046   4.799   3.612   4.906 -1.0980  2.2035 -1.2808
  845EMI    H1'16047   4.758   3.522   5.041  0.8437 -0.4752  0.4101
  845EMI    H1'16048   4.710   3.440   4.891  0.1153 -0.8722 -0.9134
  845EMI    C1"16049   4.258   3.720   4.843  0.2513  0.9153  0.2963
  845EMI    H1"16050   4.282   3.822   4.803  0.6790 -0.8975 -0.9074
  845EMI    H1"16051   4.185   3.730   4.926 -0.7274 -1.2531  0.4777
  845EMI    C2"16052   4.199   3.635   4.729  0.8917 -0.1813 -0.4841
  845EMI    H2"16053   4.102   3.673   4.690 -0.3397 -1.5224  0.5285
  845EMI    H2"16054   4.265   3.622   4.646 -2.1272  1.3291 -0.4479
  845EMI    H2"16055   4.176   3.537   4.771  1.2572  0.8614 -1.5580
  846EMI     N116056   6.144   5.887   3.699  0.6024 -0.2988 -0.1186
  846EMI     C216057   6.015   5.884   3.661 -0.5427 -0.3135 -0.1765
  846EMI     N316058   5.957   6.001   3.684 -0.1309 -0.2429  0.2204
  846EMI     C416059   6.048   6.083   3.748  0.1527 -0.6244 -0.3331
  846EMI     C516060   6.162   6.014   3.761  0.4650  0.7467  0.1397
  846EMI     H216061   5.975   5.796   3.613  0.3633 -0.0335  1.7569
  846EMI     H416062   6.026   6.183   3.789 -1.3626 -0.5155  3.8742
  846EMI     H516063   6.258   6.043   3.801 -1.6609  0.5657 -2.2541
  846EMI    C1'16064   5.819   6.042   3.665  0.1820 -0.1661 -0.6564
  846EMI    H1'16065   5.811   6.005   3.564  2.2561  0.1845  1.9882
  846EMI    H1'16066   5.761   5.986   3.742  0.9168 -0.1704  0.8886
  846EMI    H1'16067   5.808   6.150   3.678  0.3577  0.4000 -0.8969
  846EMI    C1"16068   6.237   5.778   3.699  0.5740 -0.5914 -0.2597
  846EMI    H1"16069   6.184   5.691   3.740 -0.2384  1.5228 -1.8984
  846EMI    H1"16070   6.318   5.800   3.768 -1.9952 -2.9402 -2.7432
  846EMI    C2"16071   6.301   5.750   3.565 -0.3836 -0.3212  0.1676
  846EMI    H2"16072   6.228   5.761   3.481 -0.4612  0.9608 -3.6987
  846EMI    H2"16073   6.384   5.821   3.549 -0.6733 -1.9271  1.9028
  846EMI    H2"16074   6.341   5.648   3.575 -0.5887 -0.8897 -0.3946
  847EMI     N116075   2.438   1.039   3.497  0.5701 -0.3935 -0.2119
  847EMI     C216076   2.399   1.104   3.603 -0.1056 -0.0100 -0.3027
  847EMI     N316077   2.312   1.033   3.670 -0.0755 -0.3945 -0.0402
  847EMI     C416078   2.295   0.910   3.612  0.8887  0.4714  1.0352
  847EMI     C516079   2.367   0.917   3.493 -0.2961  0.3383  0.1389
  847EMI     H216080   2.437   1.202   3.618 -0.3314 -0.9079  1.6899
  847EMI     H416081   2.223   0.837   3.648 -0.6276 -2.3299 -1.9022
  847EMI     H516082   2.381   0.850   3.414 -0.2450 -1.5629 -0.9627
  847EMI    C1'16083   2.248   1.069   3.803  0.6562  0.3761 -0.3574
  847EMI    H1'16084   2.325   1.108   3.868 -0.7638  3.4173  0.6123
  847EMI    H1'16085   2.167   1.140   3.785  0.0663 -1.2870  0.7046
  847EMI    H1'16086   2.202   0.975   3.842  0.9218 -1.5441  2.3623
  847EMI    C1"16087   2.529   1.073   3.383  0.1620 -0.7378 -0.4230
  847EMI    H1"16088   2.545   1.182   3.390  0.0205 -1.2838  0.4520
  847EMI    H1"16089   2.478   1.059   3.293  0.7747 -0.6846  1.9488
  847EMI    C2"16090   2.657   0.999   3.389  0.1587  0.4524 -0.2992
  847EMI    H2"16091   2.688   0.995   3.490 -2.2791 -0.1473  1.3748
  847EMI    H2"16092   2.629   0.902   3.359 -1.1947 -0.2917  1.8366
  847EMI    H2"16093   2.735   1.046   3.333  0.7922 -0.4991 -0.7751
  848EMI     N116094   4.406   2.869   5.542 -0.3068 -0.3395  0.0522
  848EMI     C216095   4.525   2.866   5.614 -0.3454 -0.2443 -0.0871
  848EMI     N316096   4.629   2.885   5.531 -0.0467 -0.0390  0.2969
  848EMI     C416097   4.569   2.901   5.404  0.4195  0.4735 -0.1589
  848EMI     C516098   4.436   2.888   5.410 -0.4203  0.2159  0.5145
  848EMI     H216099   4.534   2.861   5.724  1.6908  0.5471  0.1653
  848EMI     H416100   4.613   2.919   5.306  0.0801  2.8168 -0.5123
  848EMI     H516101   4.365   2.894   5.324 -2.0131  2.2949 -1.4223
  848EMI    C1'16102   4.773   2.911   5.554  0.3063  0.8193  0.0027
  848EMI    H1'16103   4.782   3.017   5.562 -0.5574  0.0334 -0.4480
  848EMI    H1'16104   4.813   2.872   5.649  1.6561  0.8417  2.6571
  848EMI    H1'16105   4.833   2.869   5.472  2.1537 -1.5621 -0.4507
  848EMI    C1"16106   4.267   2.839   5.592 -0.3813  0.6504 -0.2945
  848EMI    H1"16107   4.255   2.863   5.697 -2.5390  0.8286 -1.9578
  848EMI    H1"16108   4.256   2.727   5.593 -0.8990 -0.7060  4.0128
  848EMI    C2"16109   4.146   2.887   5.502  0.0053  0.5195 -0.5224
  848EMI    H2"16110   4.165   2.855   5.402  0.4613  0.3035  2.5864
  848EMI    H2"16111   4.044   2.861   5.539  0.0988  1.4310 -1.4384
  848EMI    H2"16112   4.142   2.995   5.500  0.6230 -1.6402  0.7049
  849EMI     N116113   2.787   1.737   3.220  0.0747  0.2228  0.6955
  849EMI     C216114   2.896   1.745   3.138  0.0457 -0.6051 -0.8000
  849EMI     N316115   2.985   1.654   3.184  0.1514  0.4942 -1.0125
  849EMI     C416116   2.931   1.592   3.297 -0.1099 -0.7044  0.3055
  849EMI     C516117   2.807   1.643   3.311 -0.3504 -0.5378  0.3801
  849EMI     H216118   2.899   1.812   3.053 -0.8983  2.1025  2.6912
  849EMI     H416119   2.980   1.524   3.355  2.8873  1.0610 -2.3460
  849EMI     H516120   2.734   1.623   3.393  1.6061 -2.1914  0.4742
  849EMI    C1'16121   3.111   1.612   3.124  0.8700  0.0996  0.5705
  849EMI    H1'16122   3.101   1.516   3.080  0.5552 -0.7326  0.1663
  849EMI    H1'16123   3.151   1.688   3.056  1.3038 -2.0389 -0.3150
  849EMI    H1'16124   3.196   1.593   3.203  2.1127 -2.5845  1.3047
  849EMI    C1"16125   2.655   1.804   3.210  0.2024  0.0800 -0.1308
  849EMI    H1"16126   2.662   1.911   3.238 -0.1511  0.7135 -0.0831
  849EMI    H1"16127   2.575   1.759   3.277 -1.4376  0.6490  1.2774
  849EMI    C2"16128   2.607   1.799   3.066 -0.1883  0.1112 -0.1750
  849EMI    H2"16129   2.522   1.852   3.049  2.1004 -1.2248  0.4366
  849EMI    H2"16130   2.681   1.850   3.007 -2.9612  0.4921 -0.1023
  849EMI    H2"16131   2.593   1.700   3.022  1.7784 -0.6149  0.6537
  850EMI     N116132   5.952   4.004   0.981  0.7785 -0.6847  0.2058
  850EMI     C216133   6.003   3.997   1.099  0.3976  0.1415 -0.3417
  850EMI     N316134   6.045   4.117   1.142 -0.0704 -0.7813 -0.3980
  850EMI     C416135   6.022   4.210   1.040  0.3175  0.6237  0.2845
  850EMI     C516136   5.964   4.141   0.942  0.7178 -0.0384 -0.2271
  850EMI     H216137   6.013   3.899   1.151  2.2277 -0.4193 -1.6150
  850EMI     H416138   6.050   4.313   1.035 -2.1237  1.4275 -2.2913
  850EMI     H516139   5.948   4.177   0.840 -0.4837  3.2829  2.9115
  850EMI    C1'16140   6.104   4.154   1.278  0.5744 -0.0662 -0.0557
  850EMI    H1'16141   6.080   4.261   1.293  1.1821 -0.4353  2.5876
  850EMI    H1'16142   6.053   4.112   1.364  0.0743  0.0960 -0.9632
  850EMI    H1'16143   6.207   4.131   1.289 -3.1999 -0.3483 -0.3750
  850EMI    C1"16144   5.901   3.897   0.898 -0.0550 -0.3600  0.4059
  850EMI    H1"16145   5.858   3.943   0.813  0.3628 -1.0913 -1.8020
  850EMI    H1"16146   5.829   3.845   0.962  0.4317  0.3640 -0.4443
  850EMI    C2"16147   6.020   3.807   0.862  0.1378 -0.4541  0.3094
  850EMI    H2"16148   6.088   3.862   0.792 -0.0712  2.1126 -0.7838
  850EMI    H2"16149   6.083   3.779   0.943 -0.8708  1.6388  0.6676
  850EMI    H2"16150   5.974   3.710   0.821 -2.8862 -2.8656  2.2199
  851EMI     N116151   4.759   4.540   1.186 -0.1075 -0.0940 -0.4254
  851EMI     C216152   4.677   4.455   1.112  0.2819  1.1395 -0.1196
  851EMI     N316153   4.687   4.491   0.981  0.0165  0.1149  0.2560
  851EMI     C416154   4.758   4.607   0.979 -0.5032 -0.4344 -0.0554
  851EMI     C516155   4.791   4.649   1.105  0.1500  0.0889  0.6058
  851EMI     H216156   4.624   4.370   1.150 -0.5458  0.8140  2.1277
  851EMI     H416157   4.762   4.664   0.889 -0.2349 -1.9150 -2.2012
  851EMI     H516158   4.844   4.735   1.132  0.2648 -0.9450  0.4915
  851EMI    C1'16159   4.622   4.441   0.867 -0.6082  0.0295  0.8675
  851EMI    H1'16160   4.558   4.355   0.892  0.7286 -0.8947  1.9198
  851EMI    H1'16161   4.569   4.524   0.817  1.9085  0.5869 -0.0117
  851EMI    H1'16162   4.688   4.418   0.782  0.4813  2.4440 -1.7522
  851EMI    C1"16163   4.779   4.545   1.339 -0.1138  0.4650  0.7597
  851EMI    H1"16164   4.778   4.444   1.378 -0.8759  3.4110  0.8671
  851EMI    H1"16165   4.706   4.608   1.391 -0.3217  1.9069  1.8725
  851EMI    C2"16166   4.915   4.612   1.362  0.4390  0.0762  0.2753
  851EMI    H2"16167   4.957   4.600   1.465 -0.2841  0.8294 -1.0707
  851EMI    H2"16168   4.988   4.571   1.288 -1.4116 -0.1921  0.2743
  851EMI    H2"16169   4.905   4.720   1.345  0.0882 -1.7706 -0.2584
  852EMI     N116170   5.352   0.593   3.787 -0.0187  0.2368 -0.8476
  852EMI     C216171   5.323   0.713   3.739 -0.7251  0.2469 -0.1366
  852EMI     N316172   5.190   0.728   3.731 -0.3947 -0.0516 -0.6276
  852EMI     C416173   5.135   0.615   3.787 -0.6739 -0.0437  0.4336
  852EMI     C516174   5.236   0.536   3.827 -0.6759 -0.3288  0.1750
  852EMI     H216175   5.393   0.792   3.717 -0.5033  0.7709 -1.9795
  852EMI     H416176   5.026   0.597   3.804 -1.7810 -0.0156  1.5942
  852EMI     H516177   5.224   0.442   3.879 -1.3793 -1.7944  1.8122
  852EMI    C1'16178   5.113   0.858   3.724 -0.7664  0.3406 -0.1106
  852EMI    H1'16179   5.144   0.932   3.652 -0.8231 -1.0500  0.8990
  852EMI    H1'16180   5.007   0.832   3.691 -1.3306  0.4268 -2.9101
  852EMI    H1'16181   5.117   0.897   3.830 -2.1245  1.0018  2.6763
  852EMI    C1"16182   5.483   0.522   3.790 -0.4346 -0.5208  0.0826
  852EMI    H1"16183   5.523   0.500   3.900 -2.5668 -1.0489  1.0649
  852EMI    H1"16184   5.558   0.582   3.730  3.2661 -0.4446 -0.6554
  852EMI    C2"16185   5.454   0.389   3.725  0.7495  0.4301  0.2700
  852EMI    H2"16186   5.547   0.336   3.706 -0.8557  3.1811  1.7827
  852EMI    H2"16187   5.386   0.330   3.789 -1.0060 -1.1308  3.0590
  852EMI    H2"16188   5.401   0.405   3.631 -1.4847 -1.0612  0.4600
  853EMI     N116189   1.608   1.926   0.062 -0.4279 -0.6462 -0.0475
  853EMI     C216190   1.613   2.022  -0.037  0.8418  0.0880  0.1946
  853EMI     N316191   1.511   1.994  -0.123  0.8437  0.0838 -0.4495
  853EMI     C416192   1.447   1.878  -0.087 -0.4949 -0.4723  0.1019
  853EMI     C516193   1.507   1.837   0.034 -0.3447 -0.4949 -0.1192
  853EMI     H216194   1.669   2.110  -0.052 -0.6718 -0.0970  0.5568
  853EMI     H416195   1.380   1.833  -0.160  1.7214 -1.7842 -0.1097
  853EMI     H516196   1.493   1.744   0.091  1.7388 -1.3432 -0.5502
  853EMI    C1'16197   1.473   2.072  -0.240  0.7698 -0.5037 -0.2284
  853EMI    H1'16198   1.552   2.146  -0.251 -0.5949  2.6513  0.9355
  853EMI    H1'16199   1.466   2.014  -0.331  2.0133  0.4471  0.8183
  853EMI    H1'16200   1.380   2.128  -0.221  0.6231 -0.0193 -0.8439
  853EMI    C1"16201   1.693   1.906   0.189 -0.6671  1.3088 -0.1816
  853EMI    H1"16202   1.627   1.925   0.274  0.2519 -0.0312  0.7802
  853EMI    H1"16203   1.781   1.972   0.192  0.5128  0.1222 -0.0332
  853EMI    C2"16204   1.762   1.767   0.202 -0.1287  0.0812  0.0046
  853EMI    H2"16205   1.780   1.747   0.303  3.9904  0.9864 -0.4325
  853EMI    H2"16206   1.683   1.699   0.166 -0.6341 -0.2338 -2.0239
  853EMI    H2"16207   1.850   1.769   0.136 -0.1031 -0.8911 -1.1095
  854EMI     N116208   0.169   5.120   2.131 -0.3215 -0.6437  0.3809
  854EMI     C216209   0.038   5.126   2.183 -0.1082  0.1649 -0.7784
  854EMI     N316210  -0.014   5.247   2.152  0.8661  0.5393 -0.0309
  854EMI     C416211   0.086   5.322   2.099  0.2356 -0.1584  0.0993
  854EMI     C516212   0.198   5.248   2.079 -0.7832 -0.1961  0.1087
  854EMI     H216213  -0.006   5.042   2.241  3.3879  0.2393  0.4089
  854EMI     H416214   0.087   5.422   2.068  0.1608 -0.7171 -0.4691
  854EMI     H516215   0.294   5.274   2.039  0.6229  0.0651 -0.5084
  854EMI    C1'16216  -0.155   5.287   2.161  0.3520 -0.5550  0.3484
  854EMI    H1'16217  -0.182   5.335   2.257 -1.0405  0.4859 -0.6682
  854EMI    H1'16218  -0.173   5.370   2.089 -2.6051 -1.1358 -0.1132
  854EMI    H1'16219  -0.230   5.210   2.139 -0.5698 -0.8857  0.9220
  854EMI    C1"16220   0.257   5.006   2.106 -0.7935  0.7385  0.1483
  854EMI    H1"16221   0.268   4.988   1.995 -0.2741 -1.5752 -3.0508
  854EMI    H1"16222   0.217   4.923   2.147  0.8643  1.5646 -0.0555
  854EMI    C2"16223   0.397   5.015   2.166  0.3429 -0.0006 -0.7735
  854EMI    H2"16224   0.446   4.929   2.128  0.6094  0.9796  2.4353
  854EMI    H2"16225   0.454   5.088   2.116 -1.2562  0.3772  0.0664
  854EMI    H2"16226   0.394   5.017   2.273 -0.6577  0.7865  0.6510
  855EMI     N116227   5.370   4.688   3.528 -0.0870  0.9465  0.6292
  855EMI     C216228   5.282   4.714   3.627  0.4642 -0.4621  0.2568
  855EMI     N316229   5.157   4.689   3.584 -0.6726  0.5728 -0.2828
  855EMI     C416230   5.168   4.644   3.454  0.1195 -0.8784  0.0311
  855EMI     C516231   5.298   4.645   3.419 -0.3439 -0.1640 -0.1040
  855EMI     H216232   5.317   4.763   3.712  2.0897  0.7484  0.4822
  855EMI     H416233   5.082   4.619   3.389  0.9773 -0.5145  3.0877
  855EMI     H516234   5.343   4.623   3.318  0.5653 -0.2422 -1.1390
  855EMI    C1'16235   5.030   4.709   3.648 -0.1808  0.0588 -0.4980
  855EMI    H1'16236   4.940   4.721   3.588  1.8193 -1.1612  0.5294
  855EMI    H1'16237   5.007   4.623   3.715 -0.0355 -0.2139  1.4773
  855EMI    H1'16238   5.043   4.796   3.703 -0.1164 -0.5761  0.7066
  855EMI    C1"16239   5.513   4.690   3.526  0.6079 -0.7059  0.9008
  855EMI    H1"16240   5.539   4.780   3.466 -2.5682  0.7142 -2.2207
  855EMI    H1"16241   5.557   4.599   3.489  2.3911  1.9192 -1.9818
  855EMI    C2"16242   5.573   4.710   3.667 -0.3279  0.1189 -0.2262
  855EMI    H2"16243   5.547   4.805   3.712 -0.7799 -0.2122 -1.1369
  855EMI    H2"16244   5.542   4.631   3.735  0.2750  0.5898  0.5961
  855EMI    H2"16245   5.679   4.713   3.670  1.7193 -4.5839  1.2785
  856EMI     N116246   5.808   2.207   0.709 -0.3463 -1.1737  0.5168
  856EMI     C216247   5.939   2.194   0.732 -0.4158  0.2056  0.4504
  856EMI     N316248   6.011   2.164   0.626  0.2004  0.3707  0.4066
  856EMI     C416249   5.914   2.148   0.529 -0.2415 -0.3035  0.2392
  856EMI     C516250   5.792   2.182   0.578 -0.9033 -0.1035 -0.0075
  856EMI     H216251   5.966   2.193   0.832 -1.9110  1.6694 -0.4287
  856EMI     H416252   5.930   2.104   0.431  0.1854 -2.4812 -0.0683
  856EMI     H516253   5.706   2.164   0.527  2.4511  5.1448  0.7616
  856EMI    C1'16254   6.147   2.096   0.621 -0.7814  0.2462 -0.8089
  856EMI    H1'16255   6.217   2.136   0.552 -2.1858  0.4579  2.2548
  856EMI    H1'16256   6.199   2.116   0.709 -2.0639 -2.0832  1.2886
  856EMI    H1'16257   6.126   1.984   0.614 -1.3870 -1.7170 -2.8947
  856EMI    C1"16258   5.696   2.238   0.806 -0.3542  0.1594 -0.0409
  856EMI    H1"16259   5.699   2.151   0.878 -0.0640  0.3002  0.2094
  856EMI    H1"16260   5.600   2.242   0.759 -0.9277 -0.0582  0.8670
  856EMI    C2"16261   5.724   2.369   0.875 -0.0181  1.1002  0.3401
  856EMI    H2"16262   5.687   2.443   0.808  2.5171 -1.5504 -0.7387
  856EMI    H2"16263   5.678   2.373   0.978  0.7070 -0.1670 -1.7190
  856EMI    H2"16264   5.828   2.374   0.889  0.9494  0.4524  1.7777
  857EMI     N116265   2.709   5.169   2.817 -0.4903  0.2020 -0.6406
  857EMI     C216266   2.579   5.163   2.784  0.3764 -0.5955  0.2189
  857EMI     N316267   2.510   5.133   2.893  0.2415  0.1297  0.3076
  857EMI     C416268   2.592   5.124   2.999 -0.5013  0.1555  0.1353
  857EMI     C516269   2.716   5.148   2.952  0.1540  0.0363  0.1477
  857EMI     H216270   2.536   5.165   2.681 -1.4143 -0.7306 -0.6762
  857EMI     H416271   2.562   5.097   3.099  2.6979  0.5965 -0.3764
  857EMI     H516272   2.808   5.159   3.010 -0.7657  2.5060 -0.3043
  857EMI    C1'16273   2.370   5.106   2.912  0.1971  0.4762  0.2765
  857EMI    H1'16274   2.329   5.184   2.977 -0.7135  0.0366 -2.0150
  857EMI    H1'16275   2.321   5.098   2.819  0.3336 -1.5377  2.8236
  857EMI    H1'16276   2.353   5.014   2.959  0.2377  1.7118  0.6068
  857EMI    C1"16277   2.827   5.176   2.735  1.0742  0.1096  0.1183
  857EMI    H1"16278   2.889   5.257   2.766  0.1476  1.4592  1.8864
  857EMI    H1"16279   2.798   5.201   2.635  0.1483 -2.9129  1.5710
  857EMI    C2"16280   2.908   5.053   2.730 -0.5620  0.0877  0.1855
  857EMI    H2"16281   2.984   5.075   2.662  0.6949 -0.3209  1.0066
  857EMI    H2"16282   2.947   5.037   2.830 -1.1512  0.6978 -0.5996
  857EMI    H2"16283   2.861   4.965   2.696  1.4849  0.0546  0.6759
  858EMI     N116284   0.011   0.201   1.007 -0.4422 -0.1361 -0.2945
  858EMI     C216285  -0.046   0.301   0.938  0.5844 -0.3687 -0.1016
  858EMI     N316286  -0.093   0.392   1.022  0.2584 -0.3269 -0.6822
  858EMI     C416287  -0.057   0.348   1.149  0.2785 -0.7623 -0.2508
  858EMI     C516288   0.005   0.227   1.143  0.6316 -0.0223  0.2876
  858EMI     H216289  -0.051   0.311   0.837 -1.1524 -1.7648 -0.6755
  858EMI     H416290  -0.072   0.404   1.234 -1.8431  1.3596  1.7748
  858EMI     H516291   0.040   0.162   1.221 -0.3629  0.1830 -0.0334
  858EMI    C1'16292  -0.168   0.520   1.003 -0.8922 -0.2283  0.0973
  858EMI    H1'16293  -0.273   0.503   1.001 -0.4335  1.3867 -0.3440
  858EMI    H1'16294  -0.155   0.590   1.087  1.1077 -0.0584 -3.4029
  858EMI    H1'16295  -0.147   0.567   0.904  2.0641 -0.6015 -0.6644
  858EMI    C1"16296   0.064   0.073   0.966  0.0761  0.0019 -0.6343
  858EMI    H1"16297  -0.015   0.013   0.920  0.5427  0.3613  1.1611
  858EMI    H1"16298   0.099   0.017   1.052 -1.6090  1.9376 -0.1124
  858EMI    C2"16299   0.186   0.107   0.879  0.1841 -0.3749  0.6389
  858EMI    H2"16300   0.264   0.154   0.944  2.9633 -1.3119  2.2104
  858EMI    H2"16301   0.224   0.014   0.831 -2.2314 -1.0138 -0.5317
  858EMI    H2"16302   0.158   0.181   0.802  2.4400 -0.0297  0.3851
  859EMI     N116303   2.119   0.541   1.202  0.0056 -0.0491  0.1768
  859EMI     C216304   2.163   0.444   1.129 -0.7873 -0.0978  0.7864
  859EMI     N316305   2.067   0.344   1.113 -0.0077 -0.0898  0.1248
  859EMI     C416306   1.960   0.389   1.182 -0.4089 -0.0141 -0.2343
  859EMI     C516307   1.988   0.513   1.234 -0.6349 -0.9299 -0.2125
  859EMI     H216308   2.253   0.439   1.083 -1.7331  2.7216 -0.4396
  859EMI     H416309   1.860   0.350   1.186  0.9073 -0.8808 -0.8808
  859EMI     H516310   1.928   0.583   1.292  1.5274  1.1239  0.2898
  859EMI    C1'16311   2.068   0.211   1.046  0.6735  0.2008  0.7185
  859EMI    H1'16312   2.150   0.145   1.076 -0.1415 -0.6538 -0.0413
  859EMI    H1'16313   1.974   0.162   1.063 -1.5157  0.4037  1.4499
  859EMI    H1'16314   2.077   0.220   0.934 -0.3281 -0.5406  3.1684
  859EMI    C1"16315   2.189   0.658   1.257  0.3899  0.3664  0.0496
  859EMI    H1"16316   2.114   0.739   1.248  1.3319  1.3177 -0.7063
  859EMI    H1"16317   2.265   0.675   1.187 -2.6479 -0.1289 -2.5813
  859EMI    C2"16318   2.238   0.639   1.400  0.8036  0.0874 -0.5001
  859EMI    H2"16319   2.162   0.661   1.481 -0.8529 -0.1357  0.8552
  859EMI    H2"16320   2.275   0.539   1.404 -1.6804 -0.2919  2.1503
  859EMI    H2"16321   2.323   0.702   1.428  0.9190 -0.7888  0.1098
  860EMI     N116322   0.099   4.708   5.361  0.0364 -0.1170  0.2143
  860EMI     C216323   0.225   4.674   5.327  0.4847 -0.2987 -0.3340
  860EMI     N316324   0.220   4.566   5.242  0.0877 -0.2509 -0.0821
  860EMI     C416325   0.086   4.535   5.223 -0.7390  0.0430 -0.5226
  860EMI     C516326   0.016   4.629   5.287  0.4334 -0.0266  0.1270
  860EMI     H216327   0.310   4.727   5.371 -1.4466 -0.2335  2.2928
  860EMI     H416328   0.047   4.453   5.169 -0.1907  1.0091 -2.2369
  860EMI     H516329  -0.091   4.627   5.310  1.0408 -0.4595 -0.0648
  860EMI    C1'16330   0.328   4.484   5.183  0.2486 -0.4046 -0.1209
  860EMI    H1'16331   0.421   4.521   5.222 -1.9273 -0.4015 -2.0157
  860EMI    H1'16332   0.312   4.381   5.211 -1.8032  0.5491 -0.3511
  860EMI    H1'16333   0.337   4.485   5.075  0.4571 -3.4985 -1.9425
  860EMI    C1"16334   0.045   4.791   5.471  0.2515 -0.7233  0.1755
  860EMI    H1"16335   0.062   4.743   5.568  0.4993  0.2256 -2.6761
  860EMI    H1"16336  -0.061   4.805   5.444 -0.1172 -0.5766  0.2016
  860EMI    C2"16337   0.111   4.929   5.460 -0.0520  0.0372 -0.3966
  860EMI    H2"16338   0.080   4.972   5.363  0.8902 -2.8925 -0.8496
  860EMI    H2"16339   0.073   4.982   5.546 -1.0818  2.2546  0.4528
  860EMI    H2"16340   0.213   4.908   5.468 -1.7915  1.1192  0.0002
  861EMI     N116341   6.546   4.749   1.528 -0.3936  0.9823  0.2228
  861EMI     C216342   6.515   4.621   1.486 -0.3723  0.2547  0.2191
  861EMI     N316343   6.625   4.575   1.420 -0.1570  0.3342  0.0551
  861EMI     C416344   6.723   4.670   1.416  0.6724  0.6626 -0.0932
  861EMI     C516345   6.672   4.777   1.481 -0.1706 -0.1679  1.2462
  861EMI     H216346   6.432   4.567   1.506  1.9316  1.0228  1.2863
  861EMI     H416347   6.815   4.653   1.373 -0.6164  1.0344  1.4672
  861EMI     H516348   6.718   4.874   1.486 -1.7875 -0.1844 -1.4530
  861EMI    C1'16349   6.644   4.458   1.332 -0.2870 -0.2935  0.1722
  861EMI    H1'16350   6.664   4.494   1.229 -0.0170 -0.4667 -1.6273
  861EMI    H1'16351   6.741   4.409   1.355  1.3915 -1.6036 -0.4624
  861EMI    H1'16352   6.558   4.391   1.327 -1.7794  1.1108 -2.0400
  861EMI    C1"16353   6.458   4.848   1.598 -0.0200  0.1499 -0.6353
  861EMI    H1"16354   6.525   4.914   1.661  0.8536  1.3154  1.2099
  861EMI    H1"16355   6.385   4.797   1.665 -0.8657 -0.9793  1.7216
  861EMI    C2"16356   6.383   4.940   1.505  0.6167 -0.7711  0.2002
  861EMI    H2"16357   6.457   4.964   1.428  0.9170 -1.5318 -1.4961
  861EMI    H2"16358   6.304   4.896   1.448  0.6552 -0.4010 -0.0346
  861EMI    H2"16359   6.346   5.021   1.569  1.4647  0.7421  1.6896
  862EMI     N116360   4.991   3.065   0.656  0.2122 -0.2086  0.3807
  862EMI     C216361   5.017   2.976   0.550 -0.2985  0.9537  0.1569
  862EMI     N316362   4.918   2.999   0.455  0.3345  0.3649 -0.4590
  862EMI     C416363   4.836   3.098   0.498 -0.5204  0.1360 -0.3462
  862EMI     C516364   4.871   3.135   0.624  0.1153  0.0442 -0.2213
  862EMI     H216365   5.100   2.911   0.533 -0.3875  1.6621 -2.9587
  862EMI     H416366   4.744   3.138   0.444 -0.4006  0.2891  1.3096
  862EMI     H516367   4.831   3.207   0.694  0.5960 -4.1153 -0.0902
  862EMI    C1'16368   4.892   2.928   0.334  0.4801 -0.1154  0.0216
  862EMI    H1'16369   4.854   3.001   0.263  3.3887 -0.1572  0.0083
  862EMI    H1'16370   4.982   2.889   0.290  0.3035  0.4230  0.3886
  862EMI    H1'16371   4.809   2.857   0.340  0.2487  1.6966  0.6562
  862EMI    C1"16372   5.056   3.076   0.782 -0.2070 -0.1255 -0.1700
  862EMI    H1"16373   5.019   3.159   0.837 -0.3167  1.8437 -2.5402
  862EMI    H1"16374   5.160   3.096   0.771 -0.8066  1.3547  2.5820
  862EMI    C2"16375   5.051   2.946   0.854  0.4785  0.0708  0.3028
  862EMI    H2"16376   4.950   2.910   0.842 -0.7580 -2.3610  0.5332
  862EMI    H2"16377   5.117   2.874   0.808  2.4132 -0.4456 -1.6715
  862EMI    H2"16378   5.082   2.963   0.956  4.6188 -0.6383  0.1197
  863EMI     N116379   3.348   4.494   2.241  0.3610 -0.0920  0.0527
  863EMI     C216380   3.324   4.514   2.112  0.1511  0.3637  0.3625
  863EMI     N316381   3.433   4.549   2.044 -0.0635 -0.2224 -0.5563
  863EMI     C416382   3.534   4.549   2.134  0.3038 -0.6511 -0.1638
  863EMI     C516383   3.484   4.515   2.257  0.3050  0.0441 -1.0073
  863EMI     H216384   3.231   4.520   2.056  2.0136 -1.8133  0.1195
  863EMI     H416385   3.638   4.556   2.109 -2.0713  0.4901 -2.1651
  863EMI     H516386   3.531   4.494   2.351 -0.8694  0.9371 -1.4497
  863EMI    C1'16387   3.459   4.583   1.909 -0.7921  0.4182 -0.4998
  863EMI    H1'16388   3.478   4.688   1.913  0.9586 -0.0398  1.8857
  863EMI    H1'16389   3.555   4.533   1.885 -0.4036 -1.0911  1.2051
  863EMI    H1'16390   3.383   4.541   1.845  3.1949 -0.3386 -1.1018
  863EMI    C1"16391   3.255   4.444   2.354  0.5299 -0.0109  0.0854
  863EMI    H1"16392   3.169   4.504   2.348  0.2162 -0.8566 -1.5256
  863EMI    H1"16393   3.302   4.450   2.447 -1.2980  1.8632 -1.1063
  863EMI    C2"16394   3.212   4.297   2.340  0.4101  0.2676  0.4607
  863EMI    H2"16395   3.298   4.224   2.321 -2.3005 -0.3365 -0.9827
  863EMI    H2"16396   3.139   4.264   2.412  0.1014 -1.5579 -1.0131
  863EMI    H2"16397   3.141   4.292   2.254 -0.8573  1.0530 -2.5160
  864EMI     N116398   2.194   1.681   3.981 -0.1488  0.2049  0.1501
  864EMI     C216399   2.152   1.783   3.903  0.0320 -0.6961 -0.5975
  864EMI     N316400   2.057   1.863   3.957 -0.7355  0.8712  0.5320
  864EMI     C416401   2.036   1.802   4.079 -0.0314  0.1542 -0.1284
  864EMI     C516402   2.122   1.698   4.102 -0.0474 -0.5824  0.2660
  864EMI     H216403   2.188   1.795   3.805  0.0816  2.7440 -1.0363
  864EMI     H416404   1.965   1.832   4.152  0.1388 -2.3811  1.2063
  864EMI     H516405   2.124   1.624   4.185 -2.3614 -2.7946 -0.0634
  864EMI    C1'16406   1.978   1.975   3.907 -0.3747  0.0073  0.3087
  864EMI    H1'16407   2.024   2.065   3.937  1.2582 -2.3007  0.2915
  864EMI    H1'16408   1.977   1.967   3.799 -0.6767 -1.2180  0.5841
  864EMI    H1'16409   1.881   1.956   3.952 -0.1876 -2.6953 -0.3578
  864EMI    C1"16410   2.275   1.562   3.953 -0.9177 -0.3551  0.7225
  864EMI    H1"16411   2.354   1.580   3.880  0.2259 -0.9281 -0.8828
  864EMI    H1"16412   2.206   1.486   3.918 -0.2054  0.8201  0.5761
  864EMI    C2"16413   2.349   1.489   4.066  0.0698  0.0540  0.2658
  864EMI    H2"16414   2.355   1.386   4.040  0.8994  0.7343 -1.3274
  864EMI    H2"16415   2.449   1.529   4.076 -1.2037 -0.9084  0.4805
  864EMI    H2"16416   2.294   1.503   4.154  1.2648 -1.2640 -0.0217
  865EMI     N116417   3.129   0.558   4.735 -0.8809 -0.1295 -0.0903
  865EMI     C216418   3.235   0.641   4.700 -0.2605  0.1025  0.1467
  865EMI     N316419   3.212   0.706   4.584  0.0581 -0.1896 -0.2551
  865EMI     C416420   3.088   0.654   4.545  0.6310 -0.3285  0.2404
  865EMI     C516421   3.032   0.574   4.637 -0.2983 -0.3537 -0.1634
  865EMI     H216422   3.334   0.647   4.745  0.4900  1.0084  3.2077
  865EMI     H416423   3.035   0.669   4.456  4.2537 -1.9273  2.3334
  865EMI     H516424   2.944   0.519   4.637 -0.4360 -0.6879 -3.5475
  865EMI    C1'16425   3.302   0.777   4.494  0.1537  0.2927  0.5459
  865EMI    H1'16426   3.343   0.712   4.424 -1.1297 -0.8319  3.6629
  865EMI    H1'16427   3.242   0.855   4.445 -0.4557  2.3882 -1.9590
  865EMI    H1'16428   3.387   0.812   4.551  0.2462  1.4921  0.7629
  865EMI    C1"16429   3.126   0.463   4.842 -0.2894  0.7602  0.1916
  865EMI    H1"16430   3.202   0.390   4.824  2.4510  2.0776 -0.0065
  865EMI    H1"16431   3.028   0.412   4.848 -1.3838  1.2871 -0.2112
  865EMI    C2"16432   3.147   0.536   4.972  0.6643  0.2043  0.3683
  865EMI    H2"16433   3.070   0.612   4.985 -1.2424 -0.1176  0.4807
  865EMI    H2"16434   3.145   0.457   5.053 -3.2723 -0.0050 -1.5035
  865EMI    H2"16435   3.250   0.565   4.978 -1.8458 -3.1813  3.0705
  866EMI     N116436   3.298   6.335   6.574 -0.1956 -0.2159  0.7614
  866EMI     C216437   3.401   6.324   6.488 -0.2280 -0.1162 -0.2886
  866EMI     N316438   3.367   6.289   6.363  0.0418 -0.0094 -0.1564
  866EMI     C416439   3.226   6.286   6.364  0.0595 -0.0514  0.2312
  866EMI     C516440   3.184   6.313   6.492 -0.3069  0.9214  0.3241
  866EMI     H216441   3.499   6.328   6.525  2.5615  0.7685 -1.0784
  866EMI     H416442   3.160   6.274   6.280  1.5404  1.4396 -1.8705
  866EMI     H516443   3.080   6.333   6.527  4.1562  0.4744 -0.7856
  866EMI    C1'16444   3.450   6.258   6.248  0.5474 -0.8442  0.0960
  866EMI    H1'16445   3.456   6.152   6.221 -0.8849 -3.1544 -0.5603
  866EMI    H1'16446   3.428   6.312   6.153  0.9862  0.3569 -1.2444
  866EMI    H1'16447   3.551   6.286   6.268 -2.6034 -1.9893  1.3009
  866EMI    C1"16448   3.281   6.376   6.714 -0.4089  0.2473  0.1485
  866EMI    H1"16449   3.194   6.314   6.744  2.1312  1.4454  1.7915
  866EMI    H1"16450   3.249   6.482   6.725 -0.6869  0.6597 -1.5222
  866EMI    C2"16451   3.410   6.332   6.789  0.1227 -0.2913  0.1610
  866EMI    H2"16452   3.403   6.373   6.890  1.5107  0.7317  0.4650
  866EMI    H2"16453   3.420   6.225   6.790  1.2459  3.9573 -0.4240
  866EMI    H2"16454   3.488   6.383   6.737 -0.8814 -0.1898  0.3062
  867EMI     N116455   0.364   2.821   5.242 -0.5972  0.2661  0.7414
  867EMI     C216456   0.453   2.726   5.274 -0.2737  0.4594  0.0455
  867EMI     N316457   0.391   2.611   5.311  0.7501 -0.5298 -0.3102
  867EMI     C416458   0.255   2.636   5.300 -0.2811  0.0470 -0.9823
  867EMI     C516459   0.240   2.762   5.244  0.4134  0.2418 -0.4546
  867EMI     H216460   0.561   2.728   5.274 -1.2802 -3.3399 -0.9380
  867EMI     H416461   0.174   2.566   5.327 -0.0726  0.4083 -0.5765
  867EMI     H516462   0.141   2.808   5.215 -1.8437  1.1698 -1.9619
  867EMI    C1'16463   0.445   2.481   5.354 -0.0752 -0.7753 -0.7861
  867EMI    H1'16464   0.387   2.400   5.310 -1.6040 -0.9931 -1.6500
  867EMI    H1'16465   0.547   2.483   5.311 -1.8009 -1.4477 -0.6382
  867EMI    H1'16466   0.461   2.476   5.462  1.3334  0.5763  2.9901
  867EMI    C1"16467   0.375   2.959   5.198  0.0284 -0.4560 -0.4960
  867EMI    H1"16468   0.268   2.995   5.185 -1.2836 -0.5128 -0.4126
  867EMI    H1"16469   0.422   2.961   5.103  2.6084  0.3314  1.1930
  867EMI    C2"16470   0.437   3.046   5.298 -0.1104  0.1994  0.5489
  867EMI    H2"16471   0.540   3.013   5.323 -3.4258 -1.5878  2.6692
  867EMI    H2"16472   0.444   3.146   5.258 -0.7755 -0.5894 -2.1477
  867EMI    H2"16473   0.382   3.029   5.394 -0.8580  0.7099  2.9184
  868EMI     N116474   6.654   1.354   6.226 -0.2581 -0.5323 -0.1979
  868EMI     C216475   6.604   1.405   6.342  0.5071 -0.1017  0.0419
  868EMI     N316476   6.650   1.342   6.450  0.6769  0.0604 -0.5042
  868EMI     C416477   6.738   1.246   6.407 -0.9872 -0.1569 -0.0088
  868EMI     C516478   6.734   1.254   6.273  0.5396  0.1469 -0.5637
  868EMI     H216479   6.542   1.495   6.356 -0.5071  2.1643  1.5716
  868EMI     H416480   6.783   1.168   6.468 -0.2593  1.4679  0.7596
  868EMI     H516481   6.792   1.193   6.210 -0.1926 -0.3582  1.0948
  868EMI    C1'16482   6.593   1.336   6.583  0.2967 -0.4024  0.1935
  868EMI    H1'16483   6.527   1.251   6.587 -1.2475  1.5439  0.8110
  868EMI    H1'16484   6.676   1.344   6.660  2.9503  1.6159  1.0488
  868EMI    H1'16485   6.531   1.426   6.590  0.5941  1.4729  1.7452
  868EMI    C1"16486   6.652   1.399   6.083  0.0246 -0.3797  0.3906
  868EMI    H1"16487   6.556   1.442   6.068  0.3350  0.6117  0.2296
  868EMI    H1"16488   6.661   1.314   6.017  0.6354 -3.3190  0.0760
  868EMI    C2"16489   6.769   1.504   6.081  0.0313 -0.1777  0.3323
  868EMI    H2"16490   6.762   1.565   6.173 -3.4524  2.3792 -1.2730
  868EMI    H2"16491   6.869   1.450   6.070  2.5276  0.2371  0.2547
  868EMI    H2"16492   6.762   1.575   5.996 -0.7782  1.2680 -0.2774
  869EMI     N116493   4.806   1.359   3.380  0.6601 -0.6771 -0.3951
  869EMI     C216494   4.818   1.285   3.497  0.3053 -0.9031  0.0385
  869EMI     N316495   4.699   1.293   3.568 -0.3561  0.0947 -0.2066
  869EMI     C416496   4.618   1.378   3.495  0.5217 -0.2251 -0.4192
  869EMI     C516497   4.680   1.414   3.382 -0.7074  0.3556 -0.6090
  869EMI     H216498   4.890   1.204   3.509 -0.7104  0.6904  0.9224
  869EMI     H416499   4.512   1.407   3.521 -0.5248  2.4752 -0.5129
  869EMI     H516500   4.633   1.472   3.308  0.6024 -1.6190  0.5759
  869EMI    C1'16501   4.659   1.207   3.678 -0.2827 -0.0145  0.2275
  869EMI    H1'16502   4.564   1.169   3.646 -1.9146  0.2530  0.0476
  869EMI    H1'16503   4.719   1.117   3.698 -1.5727 -1.7593 -0.1413
  869EMI    H1'16504   4.652   1.270   3.764  0.6253 -0.4357 -1.2607
  869EMI    C1"16505   4.897   1.371   3.263 -0.2082 -0.4336  0.2738
  869EMI    H1"16506   4.838   1.426   3.180  0.2678  0.9491  0.2733
  869EMI    H1"16507   4.923   1.268   3.236  0.3051  0.6009  0.3600
  869EMI    C2"16508   5.023   1.437   3.318 -0.3142  0.0022  0.0441
  869EMI    H2"16509   5.076   1.369   3.383  0.4574  3.1843  2.9460
  869EMI    H2"16510   5.080   1.464   3.231 -1.0333 -1.3782  0.6716
  869EMI    H2"16511   4.994   1.525   3.379  2.2666  2.1371  2.1097
  870EMI     N116512   0.068   0.840   1.532 -0.5954 -0.3028 -0.4429
  870EMI     C216513  -0.047   0.798   1.479  0.2826 -0.3782  1.3441
  870EMI     N316514  -0.148   0.848   1.550  0.1728  0.2898 -0.4196
  870EMI     C416515  -0.093   0.908   1.664 -0.2097  0.2009  0.2324
  870EMI     C516516   0.037   0.902   1.654 -0.2471 -0.2117 -0.3916
  870EMI     H216517  -0.057   0.750   1.382  0.8644  0.4967 -1.0620
  870EMI     H416518  -0.155   0.952   1.747  0.8771  0.5775  1.4986
  870EMI     H516519   0.114   0.932   1.727 -1.2430  0.8266  1.4615
  870EMI    C1'16520  -0.296   0.847   1.519  0.7911 -0.4496 -0.9507
  870EMI    H1'16521  -0.351   0.808   1.606 -2.3259 -1.9993  1.7358
  870EMI    H1'16522  -0.319   0.942   1.485 -0.2741 -3.2440 -1.4272
  870EMI    H1'16523  -0.316   0.783   1.430 -1.2364  0.0144  0.4433
  870EMI    C1"16524   0.217   0.827   1.488 -0.1161  0.9996 -0.0019
  870EMI    H1"16525   0.235   0.729   1.435  0.8292 -2.9366  1.6700
  870EMI    H1"16526   0.273   0.823   1.580 -1.2271 -2.6562 -0.2701
  870EMI    C2"16527   0.270   0.956   1.415  0.3497  0.2183 -0.2493
  870EMI    H2"16528   0.379   0.950   1.405  1.1730 -2.3318  0.8110
  870EMI    H2"16529   0.231   0.939   1.313 -0.2514 -0.9014  1.1762
  870EMI    H2"16530   0.237   1.060   1.444  1.1721  3.5330 -0.6938
  871EMI     N116531   6.084   6.527   0.474  0.1962  0.1617  0.1503
  871EMI     C216532   6.053   6.422   0.553  0.1996 -0.1690  0.5962
  871EMI     N316533   5.938   6.363   0.506 -0.3938 -0.0509  0.0057
  871EMI     C416534   5.903   6.429   0.387 -0.1178  0.2237 -0.1179
  871EMI     C516535   5.992   6.528   0.372 -0.2930 -0.1993 -0.1883
  871EMI     H216536   6.119   6.381   0.629 -0.1750  0.1751 -2.0366
  871EMI     H416537   5.817   6.403   0.322  0.9318 -1.0321 -1.0055
  871EMI     H516538   6.009   6.603   0.295  0.7439 -1.4177  0.6212
  871EMI    C1'16539   5.869   6.243   0.563  0.2496  0.8043 -0.7735
  871EMI    H1'16540   5.861   6.165   0.487  2.3042 -0.3290  0.0161
  871EMI    H1'16541   5.926   6.203   0.648 -3.3253  0.2916 -1.0212
  871EMI    H1'16542   5.766   6.267   0.590  2.4277 -1.3996  1.0974
  871EMI    C1"16543   6.191   6.628   0.494 -0.1206 -0.8169 -0.0105
  871EMI    H1"16544   6.198   6.668   0.597  1.0212  0.2360  0.2259
  871EMI    H1"16545   6.184   6.708   0.430  0.3814 -3.2306 -1.9175
  871EMI    C2"16546   6.314   6.542   0.464 -0.2455 -0.5558 -0.0520
  871EMI    H2"16547   6.299   6.487   0.379  1.8535  3.0676 -2.5412
  871EMI    H2"16548   6.399   6.609   0.451  0.1277 -0.2239  2.8766
  871EMI    H2"16549   6.336   6.464   0.537  0.4892 -1.2989  0.8380
  872EMI     N116550   5.295   3.512   3.885  0.0244  0.2246 -0.2823
  872EMI     C216551   5.237   3.395   3.853  0.4309 -0.3559 -0.0215
  872EMI     N316552   5.103   3.422   3.842  0.6921 -0.1225 -0.8816
  872EMI     C416553   5.081   3.551   3.877 -0.0378 -0.0394 -0.0415
  872EMI     C516554   5.197   3.609   3.896  0.3110  0.3930  0.3006
  872EMI     H216555   5.295   3.303   3.841  0.4092  0.5414 -0.0063
  872EMI     H416556   4.981   3.585   3.885 -0.2693  1.2866  2.2531
  872EMI     H516557   5.212   3.710   3.927  0.1128 -0.6816  1.0615
  872EMI    C1'16558   4.996   3.328   3.798  0.4044  0.2019  0.6547
  872EMI    H1'16559   5.024   3.225   3.797  1.1034  1.9378 -2.1611
  872EMI    H1'16560   4.909   3.332   3.858  0.2688  0.1585  0.3786
  872EMI    H1'16561   4.975   3.348   3.697 -0.1490 -1.5186  3.3218
  872EMI    C1"16562   5.437   3.535   3.922 -0.6544 -0.4701  0.4825
  872EMI    H1"16563   5.445   3.562   4.030 -0.1771 -0.2499  3.4306
  872EMI    H1"16564   5.469   3.621   3.860 -1.4088  2.9839  2.3991
  872EMI    C2"16565   5.540   3.425   3.889  0.0760  0.1196  0.2076
  872EMI    H2"16566   5.634   3.441   3.940  1.9082 -0.4011 -1.7609
  872EMI    H2"16567   5.502   3.330   3.922  0.2862 -2.5996 -1.2723
  872EMI    H2"16568   5.556   3.408   3.785  0.6338 -0.0885  1.4871
  873EMI     N116569   0.354   0.946   4.953 -0.0639 -0.2676 -0.3876
  873EMI     C216570   0.406   1.020   4.855 -0.1398 -0.5930  0.5267
  873EMI     N316571   0.307   1.064   4.774  0.2683 -0.2504 -0.1268
  873EMI     C416572   0.183   1.018   4.825  0.1581  0.7757 -0.5278
  873EMI     C516573   0.216   0.940   4.928  0.3171 -0.3165 -0.6207
  873EMI     H216574   0.507   1.038   4.836  0.5158  2.2974 -0.3513
  873EMI     H416575   0.089   1.031   4.770 -3.2452 -1.3241  0.2821
  873EMI     H516576   0.143   0.880   4.984 -3.4118  0.3883 -0.6178
  873EMI    C1'16577   0.321   1.140   4.641 -0.4208  0.2537  0.0571
  873EMI    H1'16578   0.228   1.199   4.627 -1.3717  0.3684  1.7401
  873EMI    H1'16579   0.401   1.212   4.645  1.1274  1.1509  0.0869
  873EMI    H1'16580   0.338   1.068   4.558 -0.4216  1.6387 -1.4038
  873EMI    C1"16581   0.406   0.849   5.051 -0.8356  0.6374 -0.8195
  873EMI    H1"16582   0.449   0.766   4.992 -1.2363  0.5642 -3.6884
  873EMI    H1"16583   0.325   0.807   5.110  1.9697  1.3733  1.5136
  873EMI    C2"16584   0.508   0.907   5.146  0.2348  0.0041  0.4837
  873EMI    H2"16585   0.564   0.835   5.202  1.3766 -3.2310 -1.3271
  873EMI    H2"16586   0.582   0.951   5.088  1.2977  0.7559  2.0923
  873EMI    H2"16587   0.459   0.980   5.213 -0.2562 -0.7914 -0.2805
  874EMI     N116588   4.646   6.355   6.052 -0.5735 -0.2038  0.1039
  874EMI     C216589   4.763   6.417   6.064  0.1522 -0.5826  0.1140
  874EMI     N316590   4.858   6.331   6.047 -0.1952 -0.1740  0.5817
  874EMI     C416591   4.800   6.214   6.004  0.3616  0.6699 -0.7004
  874EMI     C516592   4.667   6.231   6.009  0.4416  0.1554 -0.0673
  874EMI     H216593   4.769   6.525   6.082 -0.8636  1.1979  0.6102
  874EMI     H416594   4.836   6.127   5.961  0.1794 -0.9967 -0.8464
  874EMI     H516595   4.602   6.157   5.965  0.9066  2.4672  0.3742
  874EMI    C1'16596   5.003   6.352   6.052 -0.2270  0.1086  0.4203
  874EMI    H1'16597   5.027   6.427   5.969  0.6466  1.7375 -3.0521
  874EMI    H1'16598   5.021   6.399   6.145  0.0285  1.3263 -2.4180
  874EMI    H1'16599   5.066   6.267   6.024 -0.2038 -0.0490 -0.7441
  874EMI    C1"16600   4.512   6.418   6.053  0.0299  0.1965 -0.4733
  874EMI    H1"16601   4.485   6.437   6.160 -0.8625  3.3396 -0.2880
  874EMI    H1"16602   4.430   6.359   6.011 -1.7242  0.1231 -0.5497
  874EMI    C2"16603   4.492   6.548   5.982 -0.4146 -0.0008 -0.0711
  874EMI    H2"16604   4.495   6.532   5.873 -1.2016  0.2681 -0.0903
  874EMI    H2"16605   4.391   6.575   5.998 -2.8780 -0.6890  0.4036
  874EMI    H2"16606   4.567   6.628   6.011  3.0140  4.0504  0.7685
  875EMI     N116607   3.200   2.507   2.644 -0.1797  0.1368 -0.1029
  875EMI     C216608   3.258   2.390   2.595 -0.2339  0.4520 -0.3890
  875EMI     N316609   3.168   2.291   2.590  0.0390 -0.5141 -0.3892
  875EMI     C416610   3.049   2.342   2.629  0.4137  0.2995  0.3374
  875EMI     C516611   3.068   2.472   2.666  0.2988  0.3910 -0.2565
  875EMI     H216612   3.362   2.401   2.567 -1.0174  0.0011 -0.0107
  875EMI     H416613   2.948   2.295   2.625 -1.4422 -3.0747 -2.0975
  875EMI     H516614   2.985   2.531   2.700  2.3164 -3.3442  4.3309
  875EMI    C1'16615   3.187   2.157   2.537 -0.7083  0.1927 -0.3965
  875EMI    H1'16616   3.144   2.080   2.601 -5.0274  0.0043  1.8506
  875EMI    H1'16617   3.129   2.154   2.443  2.2284  1.6746  0.1652
  875EMI    H1'16618   3.298   2.143   2.527  0.0794 -0.3539  0.4725
  875EMI    C1"16619   3.264   2.643   2.674 -0.5721 -0.0246 -0.1420
  875EMI    H1"16620   3.365   2.649   2.623 -0.5658  2.4762 -0.7651
  875EMI    H1"16621   3.262   2.666   2.784 -1.0547  0.9076 -1.4953
  875EMI    C2"16622   3.192   2.762   2.606 -0.0804 -0.5063 -0.1098
  875EMI    H2"16623   3.184   2.744   2.494  4.0378  1.3383 -2.0307
  875EMI    H2"16624   3.092   2.771   2.648  0.2999  2.2861  2.2341
  875EMI    H2"16625   3.249   2.857   2.613  1.2925 -0.4330  0.4882
  876EMI     N116626   0.843   1.232   0.022 -0.0339 -0.6810  0.2277
  876EMI     C216627   0.814   1.355   0.054  0.0384 -0.0799  0.4384
  876EMI     N316628   0.922   1.420   0.080 -0.9133  0.1340 -0.3917
  876EMI     C416629   1.029   1.329   0.069  0.2339  0.4818 -0.7582
  876EMI     C516630   0.977   1.206   0.036 -0.3696  0.5496  0.0560
  876EMI     H216631   0.723   1.410   0.058  0.8666  1.2671  0.9802
  876EMI     H416632   1.133   1.345   0.061 -1.4550  0.4548 -3.0133
  876EMI     H516633   1.031   1.121   0.007  0.4639 -2.3855  2.0748
  876EMI    C1'16634   0.944   1.559   0.131 -0.4956  0.2156  0.0304
  876EMI    H1'16635   1.009   1.548   0.225  0.4452  0.8673 -0.0790
  876EMI    H1'16636   0.986   1.616   0.054  0.1725  1.6066 -0.6286
  876EMI    H1'16637   0.854   1.613   0.158 -0.4669 -2.2922 -2.2704
  876EMI    C1"16638   0.755   1.125  -0.035 -0.4056 -0.0275 -0.1116
  876EMI    H1"16639   0.808   1.028  -0.014  0.0548  0.6199  1.6846
  876EMI    H1"16640   0.737   1.134  -0.140  0.5015  0.6230  0.5875
  876EMI    C2"16641   0.615   1.126   0.024  0.1868  0.4454 -1.1914
  876EMI    H2"16642   0.633   1.120   0.131  0.0963  0.0135  0.1977
  876EMI    H2"16643   0.562   1.219  -0.005 -1.4890  0.5803 -3.1324
  876EMI    H2"16644   0.575   1.037  -0.016  2.1237 -0.9638  0.1247
  877EMI     N116645   4.712   0.224   0.175 -0.0964 -0.2608  0.3339
  877EMI     C216646   4.676   0.102   0.141  0.6937  0.4589 -0.2367
  877EMI     N316647   4.754   0.008   0.198  0.3805 -0.2882  0.2639
  877EMI     C416648   4.842   0.075   0.278  0.1348 -0.2044  0.5956
  877EMI     C516649   4.817   0.211   0.270  0.4952 -0.2537 -0.2900
  877EMI     H216650   4.585   0.080   0.083  1.8822 -1.1940  1.0626
  877EMI     H416651   4.926   0.031   0.329 -2.3074 -1.0770 -0.6077
  877EMI     H516652   4.864   0.295   0.322 -1.1159 -0.3214  1.0568
  877EMI    C1'16653   4.757  -0.142   0.187 -0.0708 -0.1857  0.1951
  877EMI    H1'16654   4.852  -0.181   0.224 -1.8749 -0.4774  1.7788
  877EMI    H1'16655   4.673  -0.191   0.245  2.9017  3.0646 -0.1349
  877EMI    H1'16656   4.740  -0.166   0.083 -0.0738  2.5067  0.4589
  877EMI    C1"16657   4.659   0.361   0.139  0.1059 -0.3931  0.3810
  877EMI    H1"16658   4.694   0.387   0.046 -1.2478 -1.7299  0.2185
  877EMI    H1"16659   4.690   0.436   0.205 -2.1635  1.8467 -1.7247
  877EMI    C2"16660   4.507   0.367   0.148  0.0952  0.2557  0.0880
  877EMI    H2"16661   4.479   0.339   0.250 -0.0306  0.3206  0.7805
  877EMI    H2"16662   4.471   0.469   0.119  0.4083 -0.5951 -1.0108
  877EMI    H2"16663   4.463   0.293   0.082 -0.4729  0.0696 -0.6028
  878EMI     N116664   0.357   6.358   6.539 -0.0118  0.1677 -0.0282
  878EMI     C216665   0.333   6.409   6.664 -0.0616  1.5149 -1.2205
  878EMI     N316666   0.269   6.525   6.657  0.0065 -0.1421  0.1703
  878EMI     C416667   0.249   6.553   6.519 -0.2411  0.5428 -0.9053
  878EMI     C516668   0.311   6.455   6.449  0.0864 -0.0344  0.1327
  878EMI     H216669   0.377   6.364   6.750 -3.6269  1.1207 -2.6108
  878EMI     H416670   0.191   6.637   6.488  1.3069 -0.0769  2.2390
  878EMI     H516671   0.304   6.461   6.335 -2.0737  0.0328 -1.5620
  878EMI    C1'16672   0.238   6.624   6.762  0.1268 -0.0450  0.0523
  878EMI    H1'16673   0.268   6.725   6.735  0.3184 -0.5978  0.3379
  878EMI    H1'16674   0.131   6.618   6.783  1.2119  0.4387 -2.6412
  878EMI    H1'16675   0.284   6.583   6.853 -0.6965 -0.7253  2.2811
  878EMI    C1"16676   0.436   6.244   6.487 -0.0512 -0.4423 -0.0864
  878EMI    H1"16677   0.524   6.269   6.438  0.6559 -1.6759  1.5229
  878EMI    H1"16678   0.373   6.188   6.421 -2.3438 -1.5991 -0.1610
  878EMI    C2"16679   0.468   6.140   6.597 -0.1863 -0.2623  0.2644
  878EMI    H2"16680   0.489   6.046   6.559  0.5724  2.3988  0.2149
  878EMI    H2"16681   0.551   6.175   6.653 -2.0328 -1.0337 -0.8005
  878EMI    H2"16682   0.387   6.125   6.670  0.0177  0.5794  2.9011
  879EMI     N116683   0.335   2.709   3.128  0.3753  0.1622 -0.6256
  879EMI     C216684   0.372   2.831   3.168 -0.5348 -0.1643  0.2561
  879EMI     N316685   0.281   2.896   3.243  0.1282 -0.5930  0.0686
  879EMI     C416686   0.171   2.817   3.242  0.2264  0.6410 -0.3921
  879EMI     C516687   0.206   2.704   3.181 -0.6698 -0.4617  0.0249
  879EMI     H216688   0.471   2.872   3.146 -0.8645  0.0717 -0.0807
  879EMI     H416689   0.076   2.851   3.283  0.3133 -0.3234 -1.1301
  879EMI     H516690   0.136   2.620   3.156  2.3691  0.1879 -1.6184
  879EMI    C1'16691   0.273   3.026   3.310  0.2418  0.0920  0.1679
  879EMI    H1'16692   0.265   3.018   3.420  0.8394 -1.7204 -0.5293
  879EMI    H1'16693   0.352   3.091   3.297 -1.4376  0.1082  0.2880
  879EMI    H1'16694   0.180   3.068   3.288  1.2054  3.3156  4.3022
  879EMI    C1"16695   0.392   2.611   3.036  0.3642  0.6382 -0.1189
  879EMI    H1"16696   0.450   2.658   2.957  2.7426  2.5740  5.4510
  879EMI    H1"16697   0.314   2.557   2.987 -3.1135  1.6808  0.5901
  879EMI    C2"16698   0.491   2.516   3.114 -0.0144 -0.6213 -0.4076
  879EMI    H2"16699   0.545   2.454   3.044  3.0810  0.3961 -0.3575
  879EMI    H2"16700   0.559   2.576   3.167 -3.7868  0.2010  1.2926
  879EMI    H2"16701   0.439   2.461   3.193 -0.4636  1.1355 -1.1354
  880EMI     N116702   6.317   5.330   2.518  0.5263 -0.3336 -0.2871
  880EMI     C216703   6.310   5.438   2.443 -0.2771  0.3212  0.8421
  880EMI     N316704   6.359   5.406   2.318 -0.1056 -0.0567  0.3401
  880EMI     C416705   6.389   5.266   2.317  0.5141  0.4318 -0.3453
  880EMI     C516706   6.359   5.222   2.440 -0.3908  0.6684 -0.0767
  880EMI     H216707   6.266   5.535   2.465 -0.5294  0.2530 -0.3919
  880EMI     H416708   6.429   5.209   2.243 -1.6434  1.8685  1.8951
  880EMI     H516709   6.385   5.128   2.486  1.7570 -1.2612 -0.4309
  880EMI    C1'16710   6.379   5.487   2.199  0.5819 -0.3537  0.9214
  880EMI    H1'16711   6.411   5.425   2.113  1.4810 -2.3370 -1.0110
  880EMI    H1'16712   6.284   5.537   2.178  0.8964 -0.1993  3.6336
  880EMI    H1'16713   6.456   5.557   2.219 -4.3362 -1.4965 -2.6575
  880EMI    C1"16714   6.280   5.304   2.656 -0.7891 -0.6080 -0.0978
  880EMI    H1"16715   6.345   5.218   2.689  0.0507 -1.5436  2.1303
  880EMI    H1"16716   6.176   5.274   2.663  0.3844 -1.5792  0.4943
  880EMI    C2"16717   6.298   5.430   2.742 -0.2499  0.1738  0.0014
  880EMI    H2"16718   6.403   5.471   2.745 -0.2962  0.4024  2.2864
  880EMI    H2"16719   6.230   5.514   2.707 -0.8505 -1.1918 -0.7756
  880EMI    H2"16720   6.272   5.387   2.842 -0.1851 -0.1615  2.0250
  881EMI     N116721   1.808   2.531   3.227  0.0255  0.5832  0.4843
  881EMI     C216722   1.931   2.572   3.267 -0.3054  0.0599 -0.7695
  881EMI     N316723   2.012   2.464   3.291  0.4544 -0.4071 -0.2889
  881EMI     C416724   1.933   2.357   3.267  0.3875 -0.7026 -0.0956
  881EMI     C516725   1.813   2.398   3.220  0.2564 -0.6166  0.0487
  881EMI     H216726   1.965   2.675   3.278  1.3935  0.8114 -1.0877
  881EMI     H416727   1.954   2.259   3.283 -0.0957 -0.5921 -0.9294
  881EMI     H516728   1.732   2.330   3.196 -1.0968  0.5622  0.0886
  881EMI    C1'16729   2.142   2.461   3.361  0.3219  0.0963  0.0282
  881EMI    H1'16730   2.142   2.379   3.432 -0.7642 -0.0598  1.2186
  881EMI    H1'16731   2.216   2.445   3.290  1.8357  4.5045 -0.4484
  881EMI    H1'16732   2.151   2.560   3.409 -0.2746  1.3682  0.2135
  881EMI    C1"16733   1.688   2.606   3.179  0.2412 -0.1527 -0.6764
  881EMI    H1"16734   1.670   2.566   3.075  1.2425  0.4029  0.8464
  881EMI    H1"16735   1.704   2.709   3.170  0.1420 -1.4683 -0.1191
  881EMI    C2"16736   1.568   2.588   3.268  0.6536 -1.1743 -0.2602
  881EMI    H2"16737   1.498   2.660   3.239  1.8625  1.3219  3.7583
  881EMI    H2"16738   1.533   2.488   3.255  0.0535  2.7720  1.2597
  881EMI    H2"16739   1.586   2.621   3.368 -1.8708 -1.1800 -0.5365
  882EMI     N116740   0.917   5.861   3.048 -0.1835 -0.4557 -0.1654
  882EMI     C216741   0.928   5.911   3.169 -0.3964  0.2341 -0.2987
  882EMI     N316742   1.048   5.973   3.182 -0.4879 -0.7773  0.2862
  882EMI     C416743   1.120   5.945   3.069  0.8721  0.0591  0.2355
  882EMI     C516744   1.037   5.869   2.991  0.2438  0.0854  0.1972
  882EMI     H216745   0.854   5.890   3.246 -1.6575  1.4091 -1.4850
  882EMI     H416746   1.227   5.972   3.048 -0.8241  2.3590 -0.0605
  882EMI     H516747   1.071   5.821   2.895  4.3408  0.8732 -0.4027
  882EMI    C1'16748   1.113   6.028   3.302 -0.0211  0.0028  0.2311
  882EMI    H1'16749   1.148   5.944   3.364 -0.1208 -1.1656 -0.1046
  882EMI    H1'16750   1.198   6.086   3.278 -0.6353  3.7498  2.1576
  882EMI    H1'16751   1.036   6.086   3.347  0.8839  1.0262  1.2673
  882EMI    C1"16752   0.809   5.771   2.998  0.3284 -0.5165 -0.8245
  882EMI    H1"16753   0.786   5.790   2.897 -0.3644 -0.0527 -0.8431
  882EMI    H1"16754   0.722   5.789   3.055  0.8470 -1.9001  1.5519
  882EMI    C2"16755   0.848   5.624   3.009  0.0457  0.0746  0.8402
  882EMI    H2"16756   0.764   5.566   2.968  0.7360  0.0405 -0.1719
  882EMI    H2"16757   0.940   5.618   2.951  2.4160  0.8078 -0.4608
  882EMI    H2"16758   0.873   5.595   3.112  1.1760  0.0198 -1.1890
  883EMI     N116759   1.704   3.427   0.095  1.2082  0.9263 -0.1999
  883EMI     C216760   1.701   3.556   0.121 -1.2762 -0.3641 -0.9116
  883EMI     N316761   1.718   3.587   0.253  0.1798 -0.1319  0.0520
  883EMI     C416762   1.722   3.470   0.322 -0.4354 -0.2519  0.2127
  883EMI     C516763   1.712   3.370   0.227  0.3819  0.3031 -0.9919
  883EMI     H216764   1.691   3.629   0.049  1.2442 -0.9561 -0.0653
  883EMI     H416765   1.741   3.461   0.426 -2.1978 -0.0119 -0.3140
  883EMI     H516766   1.723   3.265   0.256  1.1967 -0.2104 -1.1900
  883EMI    C1'16767   1.704   3.717   0.322 -0.3829 -0.5642  0.0032
  883EMI    H1'16768   1.695   3.700   0.431  0.1490 -1.6330  3.4536
  883EMI    H1'16769   1.792   3.780   0.303  1.6042 -1.2323 -3.0492
  883EMI    H1'16770   1.610   3.755   0.284 -1.8948 -1.5921 -1.2777
  883EMI    C1"16771   1.713   3.347  -0.033 -0.2500  0.1132  0.1684
  883EMI    H1"16772   1.670   3.397  -0.119  0.3520 -0.3657 -0.9666
  883EMI    H1"16773   1.664   3.247  -0.014  1.7921  0.7614  0.1159
  883EMI    C2"16774   1.863   3.329  -0.065 -0.2211  0.5484  0.0807
  883EMI    H2"16775   1.877   3.286  -0.167 -2.2711  1.4426 -3.0634
  883EMI    H2"16776   1.899   3.431  -0.078 -0.9305 -1.8743  0.1418
  883EMI    H2"16777   1.915   3.281   0.016  0.4629  1.3589  0.0329
  884EMI     N116778   3.154   2.102   6.730  0.7589 -0.1372 -0.2453
  884EMI     C216779   3.145   2.046   6.851 -0.1850 -0.1816  0.3115
  884EMI     N316780   3.068   1.939   6.849 -0.8260 -0.3452 -0.0553
  884EMI     C416781   3.011   1.928   6.725  0.0938  0.0736 -0.0445
  884EMI     C516782   3.063   2.030   6.647  0.0224  0.5719  0.1974
  884EMI     H216783   3.193   2.095   6.938 -0.4660 -3.4101  3.9927
  884EMI     H416784   2.939   1.850   6.703  3.1959  1.2384  0.8466
  884EMI     H516785   3.030   2.049   6.549  0.5549 -0.1633  0.1398
  884EMI    C1'16786   3.045   1.843   6.955 -0.1002  0.0760  0.3024
  884EMI    H1'16787   2.966   1.883   7.023  1.4886 -0.5729 -1.5694
  884EMI    H1'16788   3.032   1.744   6.908 -0.3646  1.2428  0.5113
  884EMI    H1'16789   3.133   1.844   7.029  0.8956  1.0995  2.6519
  884EMI    C1"16790   3.234   2.205   6.672  0.4900  0.1573 -0.3012
  884EMI    H1"16791   3.240   2.189   6.565 -2.3515  0.3244  0.5141
  884EMI    H1"16792   3.336   2.201   6.708  0.7535 -1.7633 -0.8308
  884EMI    C2"16793   3.170   2.335   6.726 -0.1207 -0.3373 -0.4959
  884EMI    H2"16794   3.180   2.324   6.839  0.5504  0.7348 -0.7817
  884EMI    H2"16795   3.222   2.420   6.688  0.8026  0.4548  2.5303
  884EMI    H2"16796   3.069   2.348   6.706  1.1726 -0.8102 -1.5591
  885EMI     N116797   5.396   4.597   5.133  0.1446  0.5618  0.3232
  885EMI     C216798   5.472   4.649   5.040 -0.0147 -0.6083 -0.0849
  885EMI     N316799   5.449   4.598   4.918 -0.2940 -0.0619 -0.1005
  885EMI     C416800   5.336   4.523   4.930  0.4257  0.2430  0.0316
  885EMI     C516801   5.307   4.519   5.061 -0.3893 -0.1494 -0.7447
  885EMI     H216802   5.544   4.726   5.057 -1.6279 -0.8522 -1.3190
  885EMI     H416803   5.278   4.465   4.856 -1.9997  0.2400  1.0292
  885EMI     H516804   5.227   4.467   5.097 -0.5705  0.2400 -0.1805
  885EMI    C1'16805   5.515   4.603   4.788 -1.0489 -0.0921  1.2368
  885EMI    H1'16806   5.510   4.505   4.749  0.9372  1.5504  0.3758
  885EMI    H1'16807   5.448   4.675   4.728 -1.4926  1.1283  1.4634
  885EMI    H1'16808   5.614   4.647   4.801  1.5736  4.1782 -0.0735
  885EMI    C1"16809   5.395   4.630   5.278 -0.3079  0.0087  0.5058
  885EMI    H1"16810   5.495   4.660   5.302  0.1799 -0.4141  2.0285
  885EMI    H1"16811   5.368   4.544   5.341  3.1172  2.2199 -2.7279
  885EMI    C2"16812   5.293   4.731   5.317 -0.6678  0.3125 -0.7220
  885EMI    H2"16813   5.311   4.819   5.261 -0.5375 -0.7325  1.1274
  885EMI    H2"16814   5.188   4.698   5.309 -2.4008  1.9004  1.2377
  885EMI    H2"16815   5.304   4.762   5.423  0.8825 -2.0524 -2.7806
  886EMI     N116816   0.907   5.412   1.271 -0.4008  0.0861 -0.0837
  886EMI     C216817   0.951   5.532   1.287  0.6431 -0.0474 -0.0271
  886EMI     N316818   1.042   5.560   1.196 -0.2760  0.4623 -0.2993
  886EMI     C416819   1.057   5.449   1.118  0.3193  0.7944  0.2365
  886EMI     C516820   0.972   5.357   1.162 -0.5943 -0.1494 -0.0987
  886EMI     H216821   0.909   5.614   1.346  0.0900  0.8334  0.6732
  886EMI     H416822   1.130   5.451   1.040  2.4248  0.7757  3.2598
  886EMI     H516823   0.960   5.263   1.117  0.3096 -1.6166 -0.8102
  886EMI    C1'16824   1.131   5.673   1.184  0.2981  0.3364 -0.1868
  886EMI    H1'16825   1.217   5.648   1.123 -1.1839 -1.8972 -0.8367
  886EMI    H1'16826   1.080   5.748   1.119 -4.1076  3.1762  1.8122
  886EMI    H1'16827   1.164   5.718   1.276 -1.2641  0.2336 -0.5574
  886EMI    C1"16828   0.801   5.345   1.348  0.3019  0.4889  0.9286
  886EMI    H1"16829   0.800   5.231   1.330 -1.8237 -2.0529  1.4991
  886EMI    H1"16830   0.709   5.379   1.311  1.5915 -0.6113  0.2602
  886EMI    C2"16831   0.808   5.377   1.499  0.2153 -0.5147 -0.4376
  886EMI    H2"16832   0.912   5.350   1.536 -1.6588 -0.2240  1.6707
  886EMI    H2"16833   0.796   5.485   1.524  0.1973 -1.1468 -1.1274
  886EMI    H2"16834   0.730   5.327   1.558 -0.0202 -0.6215 -0.7508
  887EMI     N116835   0.124   6.186   3.072  0.7548  0.8001 -0.7125
  887EMI     C216836   0.097   6.050   3.087 -0.2143  0.2579 -0.4779
  887EMI     N316837   0.202   5.991   3.141 -0.2385 -0.2774  0.3615
  887EMI     C416838   0.303   6.091   3.152  0.0897 -0.1114  1.0233
  887EMI     C516839   0.250   6.208   3.116 -0.3698 -0.5975 -0.9051
  887EMI     H216840   0.012   6.002   3.042  1.4582  0.3886  0.8614
  887EMI     H416841   0.402   6.072   3.192  0.3421 -1.9138  0.0650
  887EMI     H516842   0.296   6.309   3.122 -0.7441  0.9670 -2.9589
  887EMI    C1'16843   0.245   5.848   3.162 -0.0698  0.3436  0.0982
  887EMI    H1'16844   0.295   5.818   3.068  1.8705  2.0741 -0.4931
  887EMI    H1'16845   0.314   5.845   3.242 -0.2714 -0.6414 -3.5390
  887EMI    H1'16846   0.165   5.777   3.179 -0.8472  0.6167 -0.4288
  887EMI    C1"16847   0.036   6.292   3.038  0.6389 -0.2470  0.7180
  887EMI    H1"16848   0.084   6.353   2.966 -1.9916 -1.3703 -1.0901
  887EMI    H1"16849   0.027   6.354   3.132  3.1352 -1.3633  1.0268
  887EMI    C2"16850  -0.103   6.250   2.991  0.2233 -0.4165 -0.0919
  887EMI    H2"16851  -0.139   6.174   3.060 -1.0591 -1.2718  0.5979
  887EMI    H2"16852  -0.169   6.340   2.984 -0.3504  1.2931  2.5428
  887EMI    H2"16853  -0.084   6.208   2.887  2.0783  1.3988 -1.4853
  888EMI     N116854   4.554   6.478   2.345 -0.2520  0.2170 -0.3126
  888EMI     C216855   4.603   6.568   2.437  0.5340 -0.0551 -0.1423
  888EMI     N316856   4.618   6.682   2.373  0.4507  0.4288 -0.4117
  888EMI     C416857   4.578   6.672   2.239  0.3873 -0.0531  0.5783
  888EMI     C516858   4.538   6.542   2.222 -0.1345 -1.4170 -0.0761
  888EMI     H216859   4.624   6.543   2.539  0.1010 -1.0873  1.2994
  888EMI     H416860   4.585   6.745   2.162  1.5182  0.4705  1.2971
  888EMI     H516861   4.494   6.487   2.141 -3.4571 -0.3812  0.5304
  888EMI    C1'16862   4.673   6.814   2.421 -1.0552  0.1703  0.5603
  888EMI    H1'16863   4.617   6.859   2.505 -1.3005 -0.3512  1.3708
  888EMI    H1'16864   4.782   6.790   2.449  2.0839  0.7306  0.9752
  888EMI    H1'16865   4.682   6.886   2.343  0.9497  0.3749  0.3442
  888EMI    C1"16866   4.512   6.335   2.361  0.6936 -0.5767  0.8611
  888EMI    H1"16867   4.588   6.268   2.395 -0.5127 -1.9974 -2.3326
  888EMI    H1"16868   4.487   6.301   2.261 -0.2826 -0.2217 -1.3900
  888EMI    C2"16869   4.382   6.331   2.455 -0.4739  0.0055 -0.4610
  888EMI    H2"16870   4.294   6.341   2.397  1.2188  1.0714  1.3707
  888EMI    H2"16871   4.382   6.231   2.497 -0.0970 -1.2391  0.6424
  888EMI    H2"16872   4.387   6.402   2.539 -1.2495 -1.0314  2.5464
  889EMI     N116873   3.512   4.348   5.753  0.0708 -0.3446 -0.3058
  889EMI     C216874   3.425   4.245   5.766  0.1948  0.4545 -1.0603
  889EMI     N316875   3.297   4.283   5.737  0.0414 -0.4199  0.2737
  889EMI     C416876   3.311   4.416   5.704  0.4961 -0.5345 -0.1874
  889EMI     C516877   3.438   4.457   5.723 -0.0078  0.2215  0.3029
  889EMI     H216878   3.453   4.146   5.793  2.1406  0.3812 -1.5533
  889EMI     H416879   3.228   4.460   5.664  0.6721 -0.4038  1.6018
  889EMI     H516880   3.474   4.561   5.714  0.2555 -0.2746 -2.3686
  889EMI    C1'16881   3.169   4.205   5.732 -0.0361 -0.2850 -0.8441
  889EMI    H1'16882   3.116   4.221   5.829 -1.4589 -1.8689 -1.4311
  889EMI    H1'16883   3.112   4.240   5.658 -0.2410  1.1959  0.8781
  889EMI    H1'16884   3.190   4.098   5.716  1.4943 -1.6089  0.5219
  889EMI    C1"16885   3.658   4.350   5.768  0.0192 -0.2360  0.0154
  889EMI    H1"16886   3.678   4.315   5.870 -1.3739  0.5242 -0.5927
  889EMI    H1"16887   3.706   4.442   5.748  1.7218 -1.0476 -1.0139
  889EMI    C2"16888   3.726   4.239   5.684 -0.1292 -0.2841 -0.0191
  889EMI    H2"16889   3.684   4.246   5.585  0.7325 -3.2713  1.1495
  889EMI    H2"16890   3.832   4.256   5.696 -0.5230  1.9952 -1.2169
  889EMI    H2"16891   3.718   4.145   5.736  2.8695  1.8051  0.4417
  890EMI     N116892   4.871   6.287   1.769 -0.1883 -0.5373  0.6968
  890EMI     C216893   4.994   6.323   1.727  0.9152  0.3591 -0.0764
  890EMI     N316894   5.025   6.442   1.775 -0.0460  0.3959  0.4112
  890EMI     C416895   4.914   6.491   1.840  0.6560  0.1168  0.2472
  890EMI     C516896   4.816   6.398   1.829  0.5737  0.2242 -0.0193
  890EMI     H216897   5.063   6.263   1.669  0.8552 -0.0919 -0.8850
  890EMI     H416898   4.916   6.580   1.898 -1.5446 -0.7509 -0.7698
  890EMI     H516899   4.714   6.404   1.868 -0.2793 -1.2978 -2.2556
  890EMI    C1'16900   5.150   6.515   1.791  0.4259 -0.6304  1.0985
  890EMI    H1'16901   5.227   6.462   1.738  2.0666 -3.8290 -1.1354
  890EMI    H1'16902   5.135   6.614   1.738 -1.1452 -0.7429 -1.4654
  890EMI    H1'16903   5.188   6.518   1.900 -1.0215 -1.2797  0.8337
  890EMI    C1"16904   4.790   6.172   1.728 -0.9022  0.6011 -0.8183
  890EMI    H1"16905   4.723   6.139   1.801 -3.1855  3.5071 -0.9181
  890EMI    H1"16906   4.855   6.087   1.709 -1.3503  0.2467 -2.7722
  890EMI    C2"16907   4.714   6.204   1.602 -0.5789  0.5096 -0.1268
  890EMI    H2"16908   4.634   6.272   1.645 -0.5157 -2.0382  0.0440
  890EMI    H2"16909   4.770   6.254   1.534  0.8807  0.3980  0.5593
  890EMI    H2"16910   4.669   6.115   1.567 -1.3828  0.6068  2.2785
  891EMI     N116911   6.335   4.727   6.639  0.4596  0.1305 -0.6662
  891EMI     C216912   6.236   4.643   6.601 -0.5552  0.0104  0.0477
  891EMI     N316913   6.195   4.675   6.479 -0.2163 -0.3500 -0.7584
  891EMI     C416914   6.261   4.794   6.443  0.1069  0.5217 -0.1885
  891EMI     C516915   6.352   4.825   6.540  0.2944  0.9624  0.2565
  891EMI     H216916   6.198   4.564   6.660 -0.9973 -0.0545 -2.2227
  891EMI     H416917   6.239   4.837   6.349  4.0040  1.7086 -1.1676
  891EMI     H516918   6.433   4.899   6.525 -0.7000  0.8585  2.2969
  891EMI    C1'16919   6.106   4.616   6.388 -0.6621  0.3697  0.2583
  891EMI    H1'16920   6.016   4.672   6.393  0.6913 -0.7727 -1.2579
  891EMI    H1'16921   6.153   4.610   6.291  0.8145 -1.2611  2.3616
  891EMI    H1'16922   6.091   4.512   6.421 -2.1639  0.8579  0.4602
  891EMI    C1"16923   6.412   4.718   6.762  0.5361  0.9451 -1.0540
  891EMI    H1"16924   6.502   4.787   6.764  1.1311  0.7836  1.5632
  891EMI    H1"16925   6.443   4.612   6.782 -1.6951 -1.0589  0.9132
  891EMI    C2"16926   6.318   4.753   6.883  0.0047 -0.0375 -0.7154
  891EMI    H2"16927   6.226   4.700   6.872  0.0881 -0.0013 -0.1409
  891EMI    H2"16928   6.363   4.741   6.985 -0.2319  0.7545  1.3330
  891EMI    H2"16929   6.296   4.853   6.879  1.6479 -1.6937  2.2954
  892EMI     N116930   3.249   4.914   5.620  0.3630  0.4512 -0.4320
  892EMI     C216931   3.340   4.916   5.725  0.5620  0.3409  0.4608
  892EMI     N316932   3.458   4.878   5.678 -0.4124  0.2818 -0.3928
  892EMI     C416933   3.443   4.857   5.540  0.3132 -0.2558 -0.1197
  892EMI     C516934   3.316   4.887   5.504  0.6661 -0.1721 -0.0839
  892EMI     H216935   3.314   4.942   5.823  0.5693  0.9487 -1.4642
  892EMI     H416936   3.525   4.835   5.477 -1.6436  0.1401 -1.5507
  892EMI     H516937   3.269   4.892   5.408 -1.7082 -1.7724  4.4980
  892EMI    C1'16938   3.586   4.866   5.751 -0.2319  0.8429  0.2540
  892EMI    H1'16939   3.651   4.919   5.690 -1.0383  0.2126  0.2278
  892EMI    H1'16940   3.598   4.906   5.856 -0.3740  0.5171  0.0702
  892EMI    H1'16941   3.618   4.761   5.746  0.6284 -1.3777 -2.2492
  892EMI    C1"16942   3.110   4.960   5.620  0.4713  0.1021  0.1063
  892EMI    H1"16943   3.077   4.974   5.726 -3.0558  1.9691  1.2116
  892EMI    H1"16944   3.042   4.881   5.563 -3.0317  0.2776 -0.9925
  892EMI    C2"16945   3.099   5.100   5.560  0.0036  0.0351  0.1263
  892EMI    H2"16946   3.100   5.099   5.449 -2.9528  1.3303  1.6857
  892EMI    H2"16947   3.012   5.145   5.599 -0.4725  0.0641  1.4833
  892EMI    H2"16948   3.184   5.151   5.584 -1.8928  1.5669 -0.2681
  893EMI     N116949   3.173   4.173   6.188  0.5389 -0.4261 -0.2336
  893EMI     C216950   3.226   4.223   6.301  0.1236 -0.2548  0.0868
  893EMI     N316951   3.272   4.130   6.382  0.1438 -0.2151  0.8682
  893EMI     C416952   3.248   4.010   6.311  0.0971  0.0362  0.5621
  893EMI     C516953   3.190   4.039   6.195  0.5179  0.0266  0.4939
  893EMI     H216954   3.236   4.327   6.324 -1.8699 -0.8706 -1.5962
  893EMI     H416955   3.284   3.914   6.337  0.2363  2.1901  5.2121
  893EMI     H516956   3.176   3.969   6.109 -2.8558 -0.2526 -1.8049
  893EMI    C1'16957   3.338   4.140   6.522 -0.0678 -0.0752 -0.6639
  893EMI    H1'16958   3.437   4.184   6.517 -1.3283 -0.0391  1.2859
  893EMI    H1'16959   3.267   4.185   6.594 -0.2744 -0.0837 -0.1745
  893EMI    H1'16960   3.345   4.037   6.553 -2.2500 -0.2715 -0.5157
  893EMI    C1"16961   3.146   4.247   6.071  0.4620  0.4891  0.3923
  893EMI    H1"16962   3.105   4.180   6.001 -3.3359  0.9782 -1.3374
  893EMI    H1"16963   3.235   4.292   6.033 -0.9832  1.4147 -0.6780
  893EMI    C2"16964   3.043   4.357   6.105 -0.3632 -0.3968 -0.0408
  893EMI    H2"16965   3.085   4.426   6.170  0.8197 -1.5539  0.3960
  893EMI    H2"16966   3.019   4.406   6.013  2.3403  3.0337  1.3349
  893EMI    H2"16967   2.951   4.312   6.146 -0.1734 -2.3735 -1.1006
  894EMI     N116968   6.522   2.767   5.504 -0.9871 -0.4340 -0.0970
  894EMI     C216969   6.455   2.879   5.516  0.1257 -0.5109  0.2879
  894EMI     N316970   6.325   2.861   5.530  0.6062  0.0985  0.1864
  894EMI     C416971   6.316   2.730   5.560  0.0710 -0.5993  0.5997
  894EMI     C516972   6.435   2.666   5.538  0.2491  0.0061  0.1527
  894EMI     H216973   6.500   2.971   5.474 -1.4819  1.9713 -3.0619
  894EMI     H416974   6.226   2.687   5.585  2.9998  1.3805  0.3158
  894EMI     H516975   6.458   2.568   5.554 -1.0780  0.5296  1.4032
  894EMI    C1'16976   6.202   2.947   5.542 -0.6094  0.2122  0.0607
  894EMI    H1'16977   6.115   2.895   5.519  1.1157 -0.7408 -3.2508
  894EMI    H1'16978   6.203   2.973   5.649 -0.5301 -0.5259  2.2825
  894EMI    H1'16979   6.232   3.039   5.497 -3.2069  2.6335  1.7283
  894EMI    C1"16980   6.667   2.743   5.477  0.2740 -0.1113  0.5452
  894EMI    H1"16981   6.711   2.835   5.435  1.3227 -0.9769  1.0197
  894EMI    H1"16982   6.692   2.658   5.412 -1.9245  0.4773 -2.2193
  894EMI    C2"16983   6.732   2.711   5.607  0.7876  0.4650  0.2981
  894EMI    H2"16984   6.703   2.611   5.646 -0.8785 -1.9277  0.1846
  894EMI    H2"16985   6.836   2.726   5.601 -1.9433 -1.2202 -0.7299
  894EMI    H2"16986   6.687   2.783   5.681 -0.9446  1.1769  1.2072
  895EMI     N116987   3.512   1.270   0.811  0.1233 -0.3919  0.4221
  895EMI     C216988   3.598   1.255   0.708  0.5779  0.1748  0.3896
  895EMI     N316989   3.547   1.318   0.603  0.2566  0.2368 -0.3992
  895EMI     C416990   3.425   1.387   0.635 -0.1484 -0.2794 -0.5247
  895EMI     C516991   3.406   1.354   0.765 -0.0221 -0.2079  0.1126
  895EMI     H216992   3.689   1.200   0.707 -0.6571  2.8683 -0.1504
  895EMI     H416993   3.371   1.456   0.566 -0.4888  2.2242 -1.6664
  895EMI     H516994   3.332   1.397   0.826  0.8216  0.3393  2.3082
  895EMI    C1'16995   3.610   1.343   0.474  0.3085  0.2740 -0.7954
  895EMI    H1'16996   3.671   1.263   0.449  1.1635  3.3113 -0.0879
  895EMI    H1'16997   3.523   1.356   0.407 -1.4599  2.4162  0.9895
  895EMI    H1'16998   3.663   1.435   0.495 -0.6636 -0.4475 -1.3591
  895EMI    C1"16999   3.511   1.209   0.941 -0.6620  0.6213 -0.4801
  895EMI    H1"17000   3.612   1.196   0.972 -0.7731 -1.7877  1.4976
  895EMI    H1"17001   3.464   1.112   0.942  0.2621  1.7699 -2.7151
  895EMI    C2"17002   3.433   1.281   1.059 -0.0872  0.5491  0.4018
  895EMI    H2"17003   3.472   1.382   1.075  1.2601 -0.1653  2.3020
  895EMI    H2"17004   3.327   1.295   1.039 -1.7625  2.9068 -0.3810
  895EMI    H2"17005   3.455   1.223   1.148 -1.7082 -1.5997  2.9000
  896EMI     N117006   4.997   4.672   6.435 -0.4236 -0.0732  0.1926
  896EMI     C217007   4.927   4.642   6.540  0.3122 -0.3245  0.5360
  896EMI     N317008   4.951   4.712   6.645 -0.1863 -0.7414 -0.3915
  896EMI     C417009   5.047   4.811   6.602  0.1689 -0.1943 -0.1971
  896EMI     C517010   5.075   4.779   6.470 -0.5737  0.3001  0.0316
  896EMI     H217011   4.860   4.557   6.538  2.0316 -0.9708 -1.3802
  896EMI     H417012   5.088   4.887   6.661 -2.3473  0.8533  0.6556
  896EMI     H517013   5.135   4.835   6.401 -2.8340  2.0384  0.9878
  896EMI    C1'17014   4.896   4.695   6.782  0.8543 -0.4502  0.3302
  896EMI    H1'17015   4.796   4.648   6.781 -0.2409  1.2627  0.2009
  896EMI    H1'17016   4.963   4.636   6.838  0.7107  3.4858  0.4234
  896EMI    H1'17017   4.898   4.804   6.821 -0.4078  1.7731 -1.9775
  896EMI    C1"17018   4.993   4.614   6.298  0.2230  0.0370  0.2724
  896EMI    H1"17019   4.991   4.506   6.297  1.5570 -1.0893  1.4674
  896EMI    H1"17020   5.076   4.648   6.244 -3.8907 -1.0751 -1.2102
  896EMI    C2"17021   4.870   4.675   6.232  0.3556  0.1067 -0.4323
  896EMI    H2"17022   4.862   4.784   6.243 -0.6882  4.2083  1.7892
  896EMI    H2"17023   4.870   4.650   6.129  0.7007  0.5662 -0.3286
  896EMI    H2"17024   4.778   4.636   6.283 -1.1674  0.2298  1.5618
  897EMI     N117025   2.123   3.793   1.142  0.1231 -0.3974 -0.0054
  897EMI     C217026   1.993   3.814   1.182  0.1929 -0.7346 -0.1844
  897EMI     N317027   1.923   3.698   1.174 -0.2006 -0.2521 -0.9318
  897EMI     C417028   2.000   3.611   1.099 -0.2293 -0.0036 -0.5119
  897EMI     C517029   2.122   3.672   1.078 -0.1895 -0.1496  0.3911
  897EMI     H217030   1.952   3.915   1.216  0.8297  0.7150  2.2182
  897EMI     H417031   1.964   3.514   1.060 -3.5200  0.7684 -1.3333
  897EMI     H517032   2.201   3.630   1.022 -0.2142  0.6398 -1.8589
  897EMI    C1'17033   1.781   3.666   1.197  0.3042  0.6131 -0.5127
  897EMI    H1'17034   1.770   3.558   1.189 -1.2822 -1.9290 -1.0815
  897EMI    H1'17035   1.743   3.701   1.296 -0.5878  1.2987  0.0380
  897EMI    H1'17036   1.729   3.712   1.114 -1.5990  0.4630 -1.5106
  897EMI    C1"17037   2.230   3.891   1.116 -0.0553  0.2615  0.2083
  897EMI    H1"17038   2.190   3.971   1.056  2.3527  0.8000 -0.8090
  897EMI    H1"17039   2.308   3.842   1.052  1.7787  0.3578 -1.7440
  897EMI    C2"17040   2.288   3.944   1.249  0.1514  0.4358 -0.0390
  897EMI    H2"17041   2.216   4.004   1.289  1.2897 -0.2084 -1.2376
  897EMI    H2"17042   2.309   3.866   1.317 -2.9854  0.0117 -1.0595
  897EMI    H2"17043   2.378   3.997   1.230  1.4814  0.6571 -1.2953
  898EMI     N117044   2.211   3.965   5.022  0.4734 -0.1545  0.1570
  898EMI     C217045   2.241   4.036   4.911  0.3414  0.7133  0.1687
  898EMI     N317046   2.153   4.017   4.811  0.0754  0.0493  0.1139
  898EMI     C417047   2.061   3.922   4.855 -0.1059  0.1821 -0.8787
  898EMI     C517048   2.095   3.897   4.985  0.1209  0.4636 -0.4128
  898EMI     H217049   2.324   4.101   4.898  0.5326 -2.0876 -0.0183
  898EMI     H417050   1.979   3.876   4.804  2.0519 -1.4453  1.0751
  898EMI     H517051   2.043   3.821   5.047  1.6292  2.4644 -1.4953
  898EMI    C1'17052   2.163   4.070   4.672 -0.4519 -0.9115  0.0465
  898EMI    H1'17053   2.095   4.153   4.657 -0.1571 -1.3852  0.2127
  898EMI    H1'17054   2.267   4.097   4.660 -1.3206  1.8536 -0.5213
  898EMI    H1'17055   2.136   3.992   4.603  0.5548 -2.8946  0.1018
  898EMI    C1"17056   2.276   3.959   5.156 -0.3345  0.3484 -0.0492
  898EMI    H1"17057   2.204   3.915   5.228  1.5269 -1.3493 -0.1417
  898EMI    H1"17058   2.287   4.063   5.182 -0.0697 -3.6606  1.1570
  898EMI    C2"17059   2.402   3.874   5.160  0.6988  0.4082 -0.6459
  898EMI    H2"17060   2.373   3.769   5.142 -0.2830  0.6105  0.8287
  898EMI    H2"17061   2.456   3.898   5.074 -0.5512  0.4109 -0.1837
  898EMI    H2"17062   2.458   3.887   5.255  3.1511  0.6311 -0.2268
  899EMI     N117063   5.425   0.603   3.235  0.5298 -0.2392  0.6871
  899EMI     C217064   5.399   0.587   3.108  0.1801  0.3764  0.0371
  899EMI     N317065   5.438   0.695   3.037 -0.2088  0.4118  0.0808
  899EMI     C417066   5.489   0.784   3.127 -0.2133  0.4554 -0.2060
  899EMI     C517067   5.477   0.728   3.248 -0.0925 -0.5553 -0.4332
  899EMI     H217068   5.351   0.497   3.066 -1.9711 -0.0540 -1.4955
  899EMI     H417069   5.523   0.884   3.102 -0.4444 -1.7181 -0.4068
  899EMI     H517070   5.493   0.782   3.343  0.4914  0.5069  0.0253
  899EMI    C1'17071   5.429   0.733   2.898  0.1172  0.2298  0.5066
  899EMI    H1'17072   5.529   0.747   2.865  1.8113 -0.3399 -1.3542
  899EMI    H1'17073   5.387   0.651   2.837 -0.1446 -1.4332 -2.9511
  899EMI    H1'17074   5.377   0.825   2.886  0.7628 -0.6265  1.9943
  899EMI    C1"17075   5.396   0.519   3.351 -0.6939 -0.4405 -0.0796
  899EMI    H1"17076   5.429   0.567   3.442 -0.3152 -1.3132  2.1213
  899EMI    H1"17077   5.449   0.422   3.343  2.3399 -0.4915 -2.8160
  899EMI    C2"17078   5.249   0.479   3.363 -0.2957 -0.0456 -0.5384
  899EMI    H2"17079   5.231   0.425   3.455  1.0353  0.0743  1.2077
  899EMI    H2"17080   5.192   0.571   3.350 -1.1895  2.9984  0.2300
  899EMI    H2"17081   5.216   0.417   3.276 -1.3728  0.7787 -0.3305
  900EMI     N117082   2.577   3.544   4.352  0.3324 -0.0075  0.4711
  900EMI     C217083   2.597   3.571   4.484 -0.5886 -0.4141 -0.2185
  900EMI     N317084   2.721   3.519   4.516 -0.3773  0.6832 -0.8069
  900EMI     C417085   2.774   3.456   4.407  0.0642 -0.1248  0.1822
  900EMI     C517086   2.682   3.467   4.301 -0.6712  0.0549 -0.4347
  900EMI     H217087   2.530   3.631   4.546  1.0822 -0.7725 -2.5664
  900EMI     H417088   2.867   3.409   4.386  0.9690 -0.1345  0.2701
  900EMI     H517089   2.696   3.438   4.199 -2.3768  1.7110 -1.0469
  900EMI    C1'17090   2.787   3.530   4.645 -0.2087  0.9340 -0.0765
  900EMI    H1'17091   2.851   3.612   4.628 -2.0515 -0.5081  0.1532
  900EMI    H1'17092   2.715   3.544   4.728  0.1336  1.0248 -0.2058
  900EMI    H1'17093   2.829   3.429   4.670 -1.2097 -0.6014  1.1974
  900EMI    C1"17094   2.469   3.595   4.260  0.0395  1.0059  0.0997
  900EMI    H1"17095   2.482   3.533   4.173  0.5306  1.4712  2.4181
  900EMI    H1"17096   2.492   3.703   4.243 -0.6352  2.9458  3.0120
  900EMI    C2"17097   2.335   3.587   4.327  0.4932 -0.6541  0.2443
  900EMI    H2"17098   2.307   3.486   4.344  1.7340  0.8000  2.7149
  900EMI    H2"17099   2.339   3.641   4.418 -0.0156  0.6895  0.4165
  900EMI    H2"17100   2.259   3.640   4.269  0.0963  2.1960  1.1895
  901EMI     N117101   1.779   5.983   4.260 -0.6690  0.3511  0.1381
  901EMI     C217102   1.827   6.033   4.138 -0.1950  0.0832  0.5230
  901EMI     N317103   1.772   6.151   4.124 -0.3598 -0.4951 -0.2100
  901EMI     C417104   1.688   6.179   4.225 -0.1649  0.1058 -0.4861
  901EMI     C517105   1.693   6.077   4.309  0.5952  0.1385  0.4831
  901EMI     H217106   1.893   5.989   4.068 -0.7798  0.7733  1.4673
  901EMI     H417107   1.634   6.275   4.228 -0.6548  0.7416  0.6982
  901EMI     H517108   1.639   6.069   4.408 -1.2498  1.3348 -1.4538
  901EMI    C1'17109   1.800   6.257   4.023 -0.5554 -0.1023  0.0884
  901EMI    H1'17110   1.894   6.301   4.052  0.1109  0.3023 -0.2987
  901EMI    H1'17111   1.822   6.209   3.927  0.8748 -3.6329  3.6641
  901EMI    H1'17112   1.721   6.330   4.015  1.4142 -1.3104  1.5005
  901EMI    C1"17113   1.790   5.850   4.325 -0.7517 -0.0064 -0.2776
  901EMI    H1"17114   1.750   5.856   4.428 -2.7384 -0.1442  0.7469
  901EMI    H1"17115   1.896   5.822   4.345 -0.6381 -0.0189 -1.8391
  901EMI    C2"17116   1.715   5.754   4.234  0.6263  0.0636  0.6749
  901EMI    H2"17117   1.612   5.783   4.220  0.0554 -1.0751  2.2833
  901EMI    H2"17118   1.766   5.757   4.141 -0.8168  2.7195  2.1634
  901EMI    H2"17119   1.710   5.655   4.272 -1.8996 -0.4305  1.3954
  902EMI     N117120   6.175   5.755   2.982  0.0449 -0.0960 -0.9421
  902EMI     C217121   6.305   5.786   2.981 -0.0818  0.8038 -0.2728
  902EMI     N317122   6.326   5.907   2.933 -0.5339 -0.4493  0.2562
  902EMI     C417123   6.203   5.964   2.912 -0.6358 -0.8523  0.1009
  902EMI     C517124   6.110   5.872   2.944 -0.1526  0.0387 -0.0290
  902EMI     H217125   6.386   5.723   3.026 -0.1248  0.0872  0.0834
  902EMI     H417126   6.177   6.062   2.868  2.6354 -0.5639  1.4388
  902EMI     H517127   6.005   5.883   2.942 -3.1012 -0.7413  0.7694
  902EMI    C1'17128   6.451   5.977   2.900 -0.3443  0.4116  0.1708
  902EMI    H1'17129   6.517   6.013   2.981  0.2781 -1.1582  0.1417
  902EMI    H1'17130   6.521   5.906   2.849  0.6544  1.9773  2.4699
  902EMI    H1'17131   6.422   6.061   2.834 -0.2631  2.7491 -1.7875
  902EMI    C1"17132   6.102   5.629   3.007 -0.2473  0.0457 -0.2530
  902EMI    H1"17133   6.111   5.562   2.921 -0.6521  0.7367  0.8159
  902EMI    H1"17134   5.997   5.651   3.027  2.4201  1.2846 -1.3604
  902EMI    C2"17135   6.165   5.567   3.135 -0.2141  0.0863 -0.0528
  902EMI    H2"17136   6.125   5.467   3.149  1.5232  0.0704  1.7730
  902EMI    H2"17137   6.270   5.577   3.130 -2.7127  0.1984  0.2617
  902EMI    H2"17138   6.138   5.614   3.229  0.6965 -2.2410 -1.6544
  903EMI     N117139   5.759   2.637   4.884  0.2342 -0.2409  0.1293
  903EMI     C217140   5.731   2.603   4.756  0.1451 -0.9397 -0.0318
  903EMI     N317141   5.690   2.478   4.751 -0.0025 -0.5632 -1.2556
  903EMI     C417142   5.696   2.423   4.874  0.2066 -0.1917 -0.3818
  903EMI     C517143   5.741   2.522   4.958 -0.1188  0.7123  0.1723
  903EMI     H217144   5.748   2.674   4.671 -0.2199  0.8172 -0.5213
  903EMI     H417145   5.667   2.333   4.900  3.1396  2.4923 -1.0580
  903EMI     H517146   5.760   2.511   5.062  1.4894  2.6979  0.2702
  903EMI    C1'17147   5.627   2.405   4.637 -0.2560 -0.2178  0.3780
  903EMI    H1'17148   5.611   2.477   4.551 -1.6851  1.4160  0.9229
  903EMI    H1'17149   5.694   2.327   4.599 -0.0150 -0.7277  0.5059
  903EMI    H1'17150   5.526   2.361   4.650 -0.4892 -0.6678 -0.2821
  903EMI    C1"17151   5.810   2.757   4.949 -0.3663  0.4811  0.4427
  903EMI    H1"17152   5.915   2.773   4.911  1.8468  2.3442 -1.9835
  903EMI    H1"17153   5.825   2.739   5.055  0.0772  0.9166 -2.1934
  903EMI    C2"17154   5.718   2.880   4.935  0.3002  0.5703 -0.6666
  903EMI    H2"17155   5.737   2.945   5.022 -0.8187 -1.2855  0.0311
  903EMI    H2"17156   5.724   2.923   4.831 -1.6123 -0.1761 -1.8562
  903EMI    H2"17157   5.614   2.846   4.941  0.1522  1.0838  1.0025
  904EMI     N117158   1.290   6.077   3.875  0.8743 -0.2277 -0.2002
  904EMI     C217159   1.200   5.983   3.829 -0.1427 -0.2623 -0.3721
  904EMI     N317160   1.132   6.042   3.726  0.2364  0.0767 -0.6358
  904EMI     C417161   1.179   6.172   3.712 -0.1491 -0.1249  0.2298
  904EMI     C517162   1.266   6.197   3.804  0.5725 -0.7733  0.4995
  904EMI     H217163   1.183   5.879   3.859  0.1665 -1.3092  2.0963
  904EMI     H417164   1.147   6.242   3.640 -0.4176  1.2457  2.6626
  904EMI     H517165   1.315   6.298   3.823 -0.2580 -1.6810  0.2280
  904EMI    C1'17166   1.040   5.984   3.629  0.6507  0.2055 -0.5605
  904EMI    H1'17167   0.969   6.071   3.607 -1.4169  1.2560  1.0242
  904EMI    H1'17168   1.092   5.963   3.537 -0.7938  2.9627 -0.1441
  904EMI    H1'17169   0.988   5.897   3.674 -0.7619  0.2308 -0.4032
  904EMI    C1"17170   1.385   6.084   3.987 -0.6047 -0.7290  0.6946
  904EMI    H1"17171   1.334   6.112   4.082  1.0150 -0.6211  0.3195
  904EMI    H1"17172   1.479   6.144   3.967 -1.3937 -0.8501 -0.5790
  904EMI    C2"17173   1.424   5.939   4.012  0.4569 -0.4719  0.4247
  904EMI    H2"17174   1.506   5.948   4.088 -0.4723  0.7186  2.1339
  904EMI    H2"17175   1.342   5.890   4.062 -0.5269 -1.8444 -1.6232
  904EMI    H2"17176   1.461   5.902   3.917  1.7070 -0.1067  1.6328
  905EMI     N117177   3.439   3.318   4.009  0.1428  0.3696 -0.7327
  905EMI     C217178   3.365   3.227   3.947  0.0650  0.6206  0.2489
  905EMI     N317179   3.309   3.280   3.835  0.3742  0.6722 -0.8266
  905EMI     C417180   3.341   3.415   3.828 -0.6634 -0.1826  0.9238
  905EMI     C517181   3.413   3.436   3.937 -0.0133 -0.2325 -0.0600
  905EMI     H217182   3.370   3.123   3.976  0.6365  0.4307  0.1348
  905EMI     H417183   3.321   3.484   3.742 -2.0684 -0.9359 -0.1795
  905EMI     H517184   3.447   3.533   3.970 -0.4031 -1.1457  0.0774
  905EMI    C1'17185   3.222   3.215   3.730  0.1767  0.3967 -0.5613
  905EMI    H1'17186   3.151   3.146   3.777  0.5096 -1.3351  0.5483
  905EMI    H1'17187   3.158   3.288   3.686 -0.9490 -2.7558  0.7687
  905EMI    H1'17188   3.283   3.150   3.667  1.8883 -0.6076  2.2720
  905EMI    C1"17189   3.522   3.324   4.132  0.1932  0.2964 -0.3547
  905EMI    H1"17190   3.580   3.412   4.142 -3.5806 -3.9119 -1.5293
  905EMI    H1"17191   3.590   3.242   4.135 -0.6344  0.1117  1.1435
  905EMI    C2"17192   3.434   3.318   4.255  0.7830 -0.4773  0.8587
  905EMI    H2"17193   3.399   3.215   4.265  0.9398  0.9226  2.6681
  905EMI    H2"17194   3.488   3.347   4.338 -0.8527  1.3417  0.3287
  905EMI    H2"17195   3.358   3.392   4.249  0.4483  0.9719 -2.1274
  906EMI     N117196   4.007   4.569   4.570  0.0582 -0.3301  0.9298
  906EMI     C217197   3.880   4.523   4.590  0.1520  0.4158  0.3384
  906EMI     N317198   3.823   4.499   4.472 -0.0787 -0.2576  0.0045
  906EMI     C417199   3.915   4.528   4.375  0.0314 -0.0189  0.4489
  906EMI     C517200   4.027   4.576   4.435  0.5505 -0.2630 -0.6438
  906EMI     H217201   3.838   4.501   4.686 -1.4373 -0.6008 -0.3407
  906EMI     H417202   3.884   4.503   4.274 -0.8508  0.2004 -1.4350
  906EMI     H517203   4.119   4.615   4.384 -0.9037 -0.0819 -0.6602
  906EMI    C1'17204   3.691   4.441   4.438  0.0178 -0.3208 -0.4287
  906EMI    H1'17205   3.694   4.357   4.368 -2.2705 -1.2127  0.4566
  906EMI    H1'17206   3.636   4.402   4.519  1.9560 -1.9971 -0.6969
  906EMI    H1'17207   3.628   4.514   4.398 -0.6061  2.8241  0.7157
  906EMI    C1"17208   4.100   4.606   4.678  1.2145  0.0552  0.0496
  906EMI    H1"17209   4.046   4.631   4.772  0.9776  0.8660 -0.3206
  906EMI    H1"17210   4.156   4.690   4.645  1.2518 -0.3554 -1.0106
  906EMI    C2"17211   4.199   4.489   4.708  0.3124 -0.1536  0.4721
  906EMI    H2"17212   4.266   4.482   4.631  0.8107 -0.3409 -0.0285
  906EMI    H2"17213   4.243   4.511   4.805 -1.1002  2.0918  1.0251
  906EMI    H2"17214   4.152   4.393   4.704  1.7091 -1.4087 -0.9681
  907EMI     N117215   1.213   0.159   4.584 -0.0387 -0.1696  0.1986
  907EMI     C217216   1.257   0.262   4.508 -0.0667 -0.6798 -0.2330
  907EMI     N317217   1.161   0.291   4.421 -0.8545 -0.1858 -0.5196
  907EMI     C417218   1.059   0.202   4.437 -0.2129 -0.1549 -0.0722
  907EMI     C517219   1.089   0.119   4.531  0.0093 -0.0912  0.6017
  907EMI     H217220   1.358   0.296   4.514 -1.4338  0.2907  1.0758
  907EMI     H417221   0.974   0.197   4.367 -2.1553  2.7640 -4.4948
  907EMI     H517222   1.030   0.026   4.557  0.2534  1.3502  0.7473
  907EMI    C1'17223   1.171   0.393   4.317  0.2580 -0.0682  0.3208
  907EMI    H1'17224   1.246   0.384   4.242  0.1703 -1.1688  0.9367
  907EMI    H1'17225   1.077   0.394   4.260  0.0986 -0.9397 -0.6963
  907EMI    H1'17226   1.181   0.483   4.370 -0.2912  0.6792  0.0225
  907EMI    C1"17227   1.285   0.079   4.696  0.3086  0.5413 -0.0528
  907EMI    H1"17228   1.270  -0.027   4.686 -2.7198  2.1382 -0.0091
  907EMI    H1"17229   1.238   0.090   4.796 -0.5428 -2.8852 -0.3982
  907EMI    C2"17230   1.437   0.091   4.682  0.7108 -0.0576 -0.6949
  907EMI    H2"17231   1.495   0.014   4.737  1.6247 -0.5078 -1.5969
  907EMI    H2"17232   1.463   0.102   4.575  0.5132  2.3077 -1.2175
  907EMI    H2"17233   1.463   0.180   4.733 -3.9312 -3.3913  1.6484
  908EMI     N117234   4.207   3.174   5.035 -0.3658 -0.4149 -0.5059
  908EMI     C217235   4.337   3.141   5.051 -0.6627 -0.1114 -0.0382
  908EMI     N317236   4.417   3.194   4.955  0.5502  0.0267  0.3109
  908EMI     C417237   4.332   3.256   4.871  0.6399  1.0942 -0.0070
  908EMI     C517238   4.204   3.243   4.920 -0.6933 -0.9807 -0.2709
  908EMI     H217239   4.380   3.086   5.133 -2.9912 -2.6022 -0.1311
  908EMI     H417240   4.370   3.307   4.783  2.9924 -1.1451  0.4708
  908EMI     H517241   4.115   3.289   4.878  1.9807 -0.5319 -0.6414
  908EMI    C1'17242   4.562   3.180   4.942  0.1092  0.0784  0.0671
  908EMI    H1'17243   4.578   3.073   4.961  1.8313  1.7585 -1.5522
  908EMI    H1'17244   4.591   3.187   4.837  0.1628 -0.1959  0.7360
  908EMI    H1'17245   4.621   3.243   5.013  0.4029  1.0264 -0.6331
  908EMI    C1"17246   4.092   3.147   5.123 -0.1309  0.1060 -0.1385
  908EMI    H1"17247   3.997   3.175   5.066 -1.1315  2.1648  2.2828
  908EMI    H1"17248   4.096   3.209   5.214  3.1911  1.8365 -0.4844
  908EMI    C2"17249   4.070   3.000   5.159  0.7869  0.9342 -0.9035
  908EMI    H2"17250   3.991   2.992   5.233  2.4111  0.2708 -0.4897
  908EMI    H2"17251   4.040   2.951   5.067  3.8134  2.6137  3.2180
  908EMI    H2"17252   4.159   2.958   5.200  1.5446 -0.1264 -2.3870
  909EMI     N117253   1.007   5.491   4.656 -0.2147  0.5912  0.2249
  909EMI     C217254   0.986   5.400   4.752  0.0102  0.2527 -0.0646
  909EMI     N317255   0.941   5.288   4.700 -0.0869 -0.7172 -0.0251
  909EMI     C417256   0.935   5.305   4.562 -0.8902 -0.6269  0.5686
  909EMI     C517257   0.970   5.433   4.533 -0.1960 -0.0600  0.0235
  909EMI     H217258   1.011   5.412   4.859  3.4543 -0.5312 -0.9692
  909EMI     H417259   0.891   5.237   4.488 -1.5817 -1.6087 -2.4326
  909EMI     H517260   0.960   5.481   4.435  1.0632 -0.0398 -1.5041
  909EMI    C1'17261   0.885   5.174   4.766  0.2005 -0.1458  0.4016
  909EMI    H1'17262   0.949   5.095   4.749 -0.8040  2.9519  1.0082
  909EMI    H1'17263   0.892   5.197   4.875  0.9295  0.7978  0.4330
  909EMI    H1'17264   0.778   5.160   4.745 -2.2435 -0.0794 -1.4465
  909EMI    C1"17265   1.053   5.623   4.670 -0.3501  0.6899  0.6151
  909EMI    H1"17266   0.998   5.674   4.743  0.7008  1.9054 -0.2196
  909EMI    H1"17267   1.034   5.668   4.577  0.4289 -2.3254 -2.5335
  909EMI    C2"17268   1.200   5.618   4.698 -0.4266 -0.3935  0.1081
  909EMI    H2"17269   1.250   5.711   4.686  1.7195  0.7468 -0.7632
  909EMI    H2"17270   1.224   5.596   4.805 -0.0097 -0.1051  1.1575
  909EMI    H2"17271   1.253   5.550   4.631 -0.4151 -1.0227  1.1950
  910EMI     N117272   1.595   6.083   2.902 -0.3761 -0.6228  0.3085
  910EMI     C217273   1.603   6.119   3.031  0.0126 -0.1520 -0.3162
  910EMI     N317274   1.728   6.124   3.073 -0.3273 -0.1702 -0.1757
  910EMI     C417275   1.809   6.083   2.968  0.0843 -0.5215  0.6690
  910EMI     C517276   1.725   6.055   2.861  0.1574  0.0193 -0.4318
  910EMI     H217277   1.514   6.143   3.090 -0.5603  1.5404 -0.0450
  910EMI     H417278   1.911   6.065   2.964  0.0505 -0.7260  0.8376
  910EMI     H517279   1.764   6.008   2.773  0.0554 -1.2287 -0.1559
  910EMI    C1'17280   1.783   6.175   3.201  0.3509  0.2349  0.0319
  910EMI    H1'17281   1.705   6.163   3.273 -0.7924  0.7384 -0.0140
  910EMI    H1'17282   1.870   6.114   3.233  0.9018  1.0863  1.7777
  910EMI    H1'17283   1.807   6.277   3.180  1.7028 -0.9111  0.4410
  910EMI    C1"17284   1.475   6.049   2.827  0.5346 -0.1029 -0.2295
  910EMI    H1"17285   1.456   5.944   2.840  3.7366  1.7907  1.4881
  910EMI    H1"17286   1.482   6.051   2.717 -0.1517 -0.9475 -2.1677
  910EMI    C2"17287   1.355   6.125   2.866 -0.3837  0.1251 -0.2105
  910EMI    H2"17288   1.281   6.091   2.801  0.1636 -1.7651  0.7410
  910EMI    H2"17289   1.324   6.108   2.978  0.3243  1.5652  1.7868
  910EMI    H2"17290   1.374   6.234   2.852  0.4218  0.1432  0.6077
  911EMI     N117291   5.229   0.774   1.223 -0.5432 -0.5163 -0.3023
  911EMI     C217292   5.274   0.892   1.264 -0.3749  0.5661  0.2925
  911EMI     N317293   5.402   0.903   1.239  0.2327 -0.9369 -0.1954
  911EMI     C417294   5.437   0.788   1.174  0.0275 -0.2760 -0.0454
  911EMI     C517295   5.330   0.713   1.154 -0.2306  0.1550  0.1027
  911EMI     H217296   5.199   0.962   1.297  1.3248 -1.1209 -1.7731
  911EMI     H417297   5.535   0.767   1.138 -0.4620  0.6492 -1.7792
  911EMI     H517298   5.324   0.614   1.104 -2.2156  0.6058  0.9354
  911EMI    C1'17299   5.493   1.020   1.263  0.1333 -0.0080 -0.0696
  911EMI    H1'17300   5.557   1.038   1.175  0.5760  0.4549 -2.3109
  911EMI    H1'17301   5.427   1.110   1.278 -3.6167  1.5308 -0.5571
  911EMI    H1'17302   5.548   0.998   1.349 -3.2088  0.7277 -0.1676
  911EMI    C1"17303   5.096   0.716   1.244 -0.6118  0.4956 -0.0647
  911EMI    H1"17304   5.067   0.667   1.150  1.0547  1.6402 -0.3577
  911EMI    H1"17305   5.020   0.794   1.271 -1.0610  2.4118  1.3933
  911EMI    C2"17306   5.079   0.596   1.339 -0.3220  0.1055 -0.0707
  911EMI    H2"17307   5.141   0.509   1.313  1.2091  0.7486  0.3500
  911EMI    H2"17308   5.122   0.619   1.436  0.1076 -0.2407 -1.2481
  911EMI    H2"17309   4.976   0.577   1.353  0.8929 -2.7637  1.7256
  912EMI     N117310   5.272   6.639   3.716 -0.0559  0.3508 -0.1821
  912EMI     C217311   5.363   6.688   3.626  0.2842  0.2811  0.2121
  912EMI     N317312   5.420   6.585   3.563  0.4572  0.4650  0.1036
  912EMI     C417313   5.376   6.470   3.626  0.3435  0.9197  0.4503
  912EMI     C517314   5.288   6.499   3.717  0.7269 -0.1389  0.4965
  912EMI     H217315   5.378   6.797   3.601 -0.3884  0.4468  0.9292
  912EMI     H417316   5.410   6.371   3.595 -1.7506  2.1329 -0.7781
  912EMI     H517317   5.227   6.428   3.777 -1.4150 -0.8312  1.9839
  912EMI    C1'17318   5.523   6.582   3.459 -0.6649  0.5239  0.3653
  912EMI    H1'17319   5.492   6.656   3.383 -1.4022  1.5188  3.1901
  912EMI    H1'17320   5.626   6.601   3.500  0.5877  0.5041 -0.4855
  912EMI    H1'17321   5.526   6.480   3.409  1.0442 -0.7876  0.5061
  912EMI    C1"17322   5.164   6.718   3.790 -0.3705  0.1530  0.6353
  912EMI    H1"17323   5.100   6.651   3.849 -0.1289  2.1639 -0.2606
  912EMI    H1"17324   5.110   6.776   3.719  1.6124  2.6861 -2.2582
  912EMI    C2"17325   5.234   6.813   3.891  0.2251 -0.0274 -0.6636
  912EMI    H2"17326   5.160   6.879   3.936 -0.6155  0.3314  0.8364
  912EMI    H2"17327   5.285   6.756   3.977  0.5600 -1.7238  1.4270
  912EMI    H2"17328   5.301   6.874   3.837 -1.5151 -1.0945  1.8179
  913EMI     N117329   6.338   0.156   5.641 -0.1502 -0.0808 -0.2296
  913EMI     C217330   6.240   0.169   5.548  0.3877 -0.0621  0.2597
  913EMI     N317331   6.214   0.297   5.527 -0.3799  0.2398  0.8212
  913EMI     C417332   6.302   0.374   5.600  0.1744 -0.4022  0.0174
  913EMI     C517333   6.382   0.282   5.663 -0.8120 -0.5706 -0.1209
  913EMI     H217334   6.184   0.093   5.503  0.5672  1.6154 -0.2236
  913EMI     H417335   6.313   0.482   5.590  2.3467  1.5197  2.8777
  913EMI     H517336   6.469   0.304   5.727 -0.7266 -2.0852  0.1617
  913EMI    C1'17337   6.115   0.357   5.436  0.2411 -0.1443 -0.1194
  913EMI    H1'17338   6.091   0.462   5.452 -2.9193  1.9643 -0.1761
  913EMI    H1'17339   6.159   0.357   5.342  1.6013 -0.2775  1.7862
  913EMI    H1'17340   6.021   0.308   5.453 -2.3601  0.5399 -0.4776
  913EMI    C1"17341   6.397   0.033   5.702  0.1585  0.9005 -0.0440
  913EMI    H1"17342   6.501   0.040   5.696 -2.6443 -1.1657 -0.3310
  913EMI    H1"17343   6.376  -0.056   5.645  1.2873 -2.1006  0.5547
  913EMI    C2"17344   6.337   0.009   5.849 -0.3082  0.6095 -0.1158
  913EMI    H2"17345   6.346   0.104   5.902  1.6898  2.0937 -1.4017
  913EMI    H2"17346   6.229  -0.028   5.849  0.5422 -0.6941  2.3184
  913EMI    H2"17347   6.390  -0.071   5.901  1.0996 -0.6418  0.7838
  914EMI     N117348   4.353   3.646   5.862  0.2522  0.2491  0.3462
  914EMI     C217349   4.435   3.745   5.901 -0.5356 -0.1580  0.8540
  914EMI     N317350   4.529   3.696   5.974 -0.2284 -0.4247 -0.0144
  914EMI     C417351   4.510   3.563   5.992  0.2841 -0.2422  0.6029
  914EMI     C517352   4.403   3.526   5.911  0.0863 -0.0505  0.0528
  914EMI     H217353   4.431   3.852   5.871  1.1380  2.2234 -2.3909
  914EMI     H417354   4.558   3.494   6.055  0.5427 -0.1908 -4.1052
  914EMI     H517355   4.352   3.429   5.897 -0.2994  0.1336 -0.6510
  914EMI    C1'17356   4.657   3.756   6.036  0.1380 -0.0117  0.2225
  914EMI    H1'17357   4.629   3.851   6.076 -2.1507 -0.5490  0.7665
  914EMI    H1'17358   4.702   3.689   6.118  0.1105  0.7761  3.1745
  914EMI    H1'17359   4.726   3.783   5.960  1.2245 -1.5471 -1.2805
  914EMI    C1"17360   4.223   3.647   5.786  0.3956 -0.2985  0.5557
  914EMI    H1"17361   4.191   3.749   5.779  1.1249  0.0824  0.8889
  914EMI    H1"17362   4.155   3.586   5.848 -1.8865  0.1325 -0.8581
  914EMI    C2"17363   4.239   3.580   5.654  0.0255  0.2968  0.6010
  914EMI    H2"17364   4.344   3.572   5.627 -2.8372 -3.6201  0.4183
  914EMI    H2"17365   4.192   3.483   5.668  1.6714  1.1953 -2.7587
  914EMI    H2"17366   4.177   3.626   5.578 -0.4624 -1.7882  1.2610
  915EMI     N117367   6.372   1.459   3.899  0.0525 -0.6202 -0.4762
  915EMI     C217368   6.412   1.582   3.859 -0.0244 -0.3242  0.3581
  915EMI     N317369   6.524   1.576   3.786  0.0160  0.0788  0.0574
  915EMI     C417370   6.557   1.441   3.778 -0.4031 -0.3493  0.0241
  915EMI     C517371   6.464   1.370   3.845  0.4351  0.2612 -0.0298
  915EMI     H217372   6.379   1.675   3.899  1.8093  0.1188  1.6041
  915EMI     H417373   6.651   1.421   3.725 -2.2749  0.7362  1.2324
  915EMI     H517374   6.461   1.262   3.854  0.0052 -1.9280  0.6400
  915EMI    C1'17375   6.617   1.681   3.743  0.4812 -0.5622 -0.7433
  915EMI    H1'17376   6.712   1.645   3.711 -2.3555  0.8125  0.5143
  915EMI    H1'17377   6.567   1.736   3.666 -0.4173  1.9562 -1.8763
  915EMI    H1'17378   6.646   1.748   3.821  0.9389  0.0507 -0.5624
  915EMI    C1"17379   6.255   1.406   3.976  0.2076  0.6498  0.1870
  915EMI    H1"17380   6.261   1.426   4.084 -0.4886  2.1691 -0.4890
  915EMI    H1"17381   6.254   1.303   3.953  0.3280  0.0493  2.0880
  915EMI    C2"17382   6.124   1.472   3.926  0.1792  0.2428  0.2265
  915EMI    H2"17383   6.110   1.440   3.828  3.8554 -1.6583  1.3096
  915EMI    H2"17384   6.036   1.440   3.986 -1.8303 -0.5694 -1.1022
  915EMI    H2"17385   6.129   1.578   3.925  0.1843 -0.7654 -0.7873
  916EMI     N117386   6.355   2.556   1.949 -0.0008  0.5479  0.0992
  916EMI     C217387   6.280   2.585   1.838  0.1941  0.3465  0.0847
  916EMI     N317388   6.215   2.481   1.795 -0.7502  0.4950  0.0303
  916EMI     C417389   6.268   2.376   1.868 -0.3678 -0.2358  0.2841
  916EMI     C517390   6.349   2.425   1.964  0.0230 -0.1817 -0.3281
  916EMI     H217391   6.279   2.681   1.785  0.5513 -1.9254  1.8012
  916EMI     H417392   6.259   2.268   1.857  0.8060  0.0351 -1.6429
  916EMI     H517393   6.388   2.369   2.052 -0.2599 -1.4963  0.4070
  916EMI    C1'17394   6.122   2.459   1.687 -0.4786  0.4772 -0.3591
  916EMI    H1'17395   6.107   2.551   1.639  1.6349  0.7897  3.6195
  916EMI    H1'17396   6.174   2.393   1.617  0.6699  1.6281  0.6337
  916EMI    H1'17397   6.025   2.414   1.723  1.0742  2.3472  0.6621
  916EMI    C1"17398   6.435   2.641   2.040  0.1050 -0.2774  0.4332
  916EMI    H1"17399   6.498   2.711   1.987  0.5849  0.0575 -0.6214
  916EMI    H1"17400   6.495   2.579   2.101 -4.0698  1.4231 -1.3989
  916EMI    C2"17401   6.345   2.726   2.119  0.3842  0.3760  0.7659
  916EMI    H2"17402   6.389   2.822   2.158 -1.3093  0.0315 -1.5853
  916EMI    H2"17403   6.257   2.754   2.056 -0.0847 -0.9090 -0.7814
  916EMI    H2"17404   6.319   2.658   2.201 -0.0023 -0.0326  3.1808
  917EMI     N117405   2.984   0.706   1.900 -0.2972 -0.0321 -0.2859
  917EMI     C217406   2.986   0.572   1.884 -0.7388  0.0234 -0.4826
  917EMI     N317407   2.980   0.510   2.005  0.5389  1.2159  0.5625
  917EMI     C417408   2.966   0.611   2.095 -0.1096  0.0272 -0.1459
  917EMI     C517409   2.971   0.730   2.038  0.5222  0.0083  0.2370
  917EMI     H217410   2.995   0.525   1.787 -2.0252 -0.6049 -0.1934
  917EMI     H417411   2.939   0.596   2.197  0.7457  1.4043 -0.6003
  917EMI     H517412   2.941   0.823   2.095 -1.2428 -2.0524 -1.9424
  917EMI    C1'17413   2.956   0.370   2.040 -0.2627  0.0037 -0.3879
  917EMI    H1'17414   3.047   0.310   2.028 -0.7889  1.6765 -0.2349
  917EMI    H1'17415   2.919   0.379   2.141 -2.2534  0.0733 -0.5711
  917EMI    H1'17416   2.873   0.334   1.975  0.2967  0.4271  1.5187
  917EMI    C1"17417   2.978   0.815   1.796  0.0140 -0.9202 -0.4600
  917EMI    H1"17418   3.015   0.903   1.851 -0.8042 -2.0131  1.7166
  917EMI    H1"17419   2.879   0.816   1.751 -1.4200  0.9749 -2.2820
  917EMI    C2"17420   3.078   0.776   1.684  0.2729  0.7510  0.7233
  917EMI    H2"17421   3.059   0.679   1.652  1.9807  1.1433  0.4360
  917EMI    H2"17422   3.061   0.854   1.610 -0.3105 -0.8014  0.4010
  917EMI    H2"17423   3.178   0.787   1.728 -1.0558 -1.0244  0.6819
  918EMI     N117424   2.079   0.776   5.753 -0.2097 -0.1319 -0.7893
  918EMI     C217425   2.049   0.811   5.625 -0.3011 -0.4363  0.5858
  918EMI     N317426   1.972   0.720   5.561  0.1408  0.1622  0.2873
  918EMI     C417427   1.952   0.623   5.658  0.0457 -0.1200  0.0232
  918EMI     C517428   2.017   0.658   5.773  0.1163 -0.3277 -0.0568
  918EMI     H217429   2.079   0.907   5.588 -1.6163  0.5049 -0.9881
  918EMI     H417430   1.901   0.540   5.644  2.6103  0.6626  0.2842
  918EMI     H517431   2.008   0.609   5.864 -1.0886  3.4663 -0.4697
  918EMI    C1'17432   1.914   0.720   5.428 -0.4245 -0.0987  0.9898
  918EMI    H1'17433   1.984   0.723   5.353 -1.3271  1.6030  0.3589
  918EMI    H1'17434   1.872   0.627   5.403  1.3841 -0.0462  2.7721
  918EMI    H1'17435   1.841   0.797   5.414  0.4793  1.5979 -2.5112
  918EMI    C1"17436   2.150   0.861   5.859  0.3184 -0.0148 -1.1669
  918EMI    H1"17437   2.082   0.878   5.944 -2.2638 -1.4857 -0.8246
  918EMI    H1"17438   2.190   0.947   5.810  0.0581 -1.3996 -0.8131
  918EMI    C2"17439   2.257   0.781   5.924  0.2183  1.4442 -0.1899
  918EMI    H2"17440   2.219   0.691   5.975  0.7733 -0.5961 -2.1644
  918EMI    H2"17441   2.325   0.750   5.846  1.2102 -0.6478  0.3172
  918EMI    H2"17442   2.312   0.840   5.992 -0.7099 -1.1346 -1.7343
  919EMI     N117443   6.388   2.791   3.765 -0.0086  0.5834 -0.6804
  919EMI     C217444   6.442   2.914   3.747 -0.5388 -0.0849 -0.5025
  919EMI     N317445   6.398   2.998   3.837 -0.0046 -0.4280  0.3027
  919EMI     C417446   6.295   2.934   3.896 -0.5299 -0.6318 -0.1511
  919EMI     C517447   6.285   2.807   3.856  0.3696  0.0377  0.3155
  919EMI     H217448   6.525   2.925   3.674  0.1990 -1.7530 -3.5838
  919EMI     H417449   6.230   2.990   3.967  0.3956 -2.5339 -1.3002
  919EMI     H517450   6.218   2.730   3.893  0.0339 -1.5564  1.0513
  919EMI    C1'17451   6.439   3.135   3.871 -0.4924 -0.3379  0.6970
  919EMI    H1'17452   6.369   3.186   3.933  0.7196  0.4291 -0.8284
  919EMI    H1'17453   6.533   3.132   3.920  0.9026  1.0347 -2.4919
  919EMI    H1'17454   6.457   3.184   3.776  1.0456  0.0485 -1.1097
  919EMI    C1"17455   6.419   2.668   3.691  0.3470  0.4524 -0.8054
  919EMI    H1"17456   6.471   2.698   3.606 -0.5071  0.0631  2.0542
  919EMI    H1"17457   6.325   2.622   3.666 -2.0520 -1.8546  0.1708
  919EMI    C2"17458   6.502   2.571   3.763  0.0570 -0.1618  0.9320
  919EMI    H2"17459   6.457   2.545   3.862 -1.4745  0.6292  3.5160
  919EMI    H2"17460   6.515   2.478   3.701  1.3208  0.9922  0.7114
  919EMI    H2"17461   6.599   2.615   3.782 -0.3842 -1.3926 -0.9419
  920EMI     N117462   5.747   5.759   5.427  0.1155 -0.2306 -0.1431
  920EMI     C217463   5.815   5.709   5.529 -0.6754  0.1448 -0.2037
  920EMI     N317464   5.850   5.579   5.511  0.4210 -0.0954 -0.6300
  920EMI     C417465   5.780   5.541   5.403  0.6888 -0.2430  0.5004
  920EMI     C517466   5.721   5.649   5.349  0.3485  0.5297  0.0480
  920EMI     H217467   5.831   5.763   5.622 -0.5274 -0.8106  0.7973
  920EMI     H417468   5.778   5.436   5.370 -2.0354 -5.3004  2.0267
  920EMI     H517469   5.647   5.653   5.267  1.4773  1.1755 -0.0230
  920EMI    C1'17470   5.912   5.494   5.613 -0.2112 -0.1856  0.2743
  920EMI    H1'17471   5.837   5.432   5.665  2.2946 -0.9737 -0.4373
  920EMI    H1'17472   5.993   5.434   5.562  0.2713 -1.3787 -0.2425
  920EMI    H1'17473   5.941   5.564   5.693 -0.5333 -0.4118 -0.1626
  920EMI    C1"17474   5.700   5.896   5.399 -0.5232 -0.1319 -0.8154
  920EMI    H1"17475   5.672   5.913   5.298 -0.6013  1.2831  0.4746
  920EMI    H1"17476   5.779   5.968   5.424  1.6234 -0.6289  0.9256
  920EMI    C2"17477   5.576   5.941   5.473 -0.1255  0.5775  0.0310
  920EMI    H2"17478   5.596   5.939   5.579 -0.7296 -2.2904 -1.2322
  920EMI    H2"17479   5.555   6.045   5.449  0.8142 -0.4138  0.0802
  920EMI    H2"17480   5.484   5.879   5.459  0.2330 -0.1982  2.1200
  921EMI     N117481   3.361   6.761   1.608 -0.4749  0.2182 -0.0497
  921EMI     C217482   3.368   6.758   1.743 -0.2628 -0.3085 -0.7415
  921EMI     N317483   3.298   6.650   1.788  0.0871 -0.4102 -0.5017
  921EMI     C417484   3.240   6.605   1.677  1.0743  0.1855  0.2647
  921EMI     C517485   3.275   6.672   1.571  0.3083 -0.0354 -0.6505
  921EMI     H217486   3.421   6.832   1.802  1.1798  2.2137  0.0602
  921EMI     H417487   3.161   6.525   1.687 -0.8775  0.5707  0.3726
  921EMI     H517488   3.249   6.662   1.470  1.3172  1.1962 -0.5683
  921EMI    C1'17489   3.278   6.592   1.924 -0.1521  0.0396 -0.4643
  921EMI    H1'17490   3.367   6.612   1.985 -1.0310 -1.9462  1.5297
  921EMI    H1'17491   3.195   6.632   1.972 -0.7227 -1.8916 -0.7618
  921EMI    H1'17492   3.268   6.485   1.920  1.9162  0.0554  1.3542
  921EMI    C1"17493   3.401   6.865   1.521  0.0602 -0.4731  1.0033
  921EMI    H1"17494   3.372   6.968   1.548  0.2420 -2.5474  0.3283
  921EMI    H1"17495   3.368   6.849   1.416 -2.1956  2.0968 -0.8116
  921EMI    C2"17496   3.552   6.856   1.500  0.0055  0.0195 -0.5826
  921EMI    H2"17497   3.607   6.863   1.596 -1.0912  2.3003 -1.1991
  921EMI    H2"17498   3.581   6.771   1.444 -0.1813  0.0747  2.7179
  921EMI    H2"17499   3.581   6.938   1.433 -0.8281  0.2233 -0.1156
  922EMI     N117500   4.550   1.762   2.769  0.0915  0.4230  0.3587
  922EMI     C217501   4.526   1.641   2.821  0.2325 -0.0736  0.3427
  922EMI     N317502   4.444   1.571   2.747  0.5430 -0.1505 -0.3073
  922EMI     C417503   4.425   1.641   2.630 -0.3962 -0.2897 -0.2173
  922EMI     C517504   4.482   1.760   2.645 -0.2376 -0.2644  0.4521
  922EMI     H217505   4.564   1.609   2.914  0.8137  4.1787 -0.4289
  922EMI     H417506   4.370   1.602   2.543  1.3392  1.4036 -0.6015
  922EMI     H517507   4.478   1.845   2.575  1.9635 -3.8906 -1.1324
  922EMI    C1'17508   4.397   1.438   2.782  0.6195  0.6171 -0.0865
  922EMI    H1'17509   4.392   1.379   2.691  1.7766 -1.0930 -0.0271
  922EMI    H1'17510   4.469   1.390   2.854  1.6930 -0.1210 -1.2127
  922EMI    H1'17511   4.292   1.428   2.818  0.2011  1.5638  1.5608
  922EMI    C1"17512   4.639   1.864   2.826  0.8576  0.1371  0.0480
  922EMI    H1"17513   4.663   1.854   2.930  1.4749 -0.0599  0.3153
  922EMI    H1"17514   4.593   1.965   2.812 -2.0481 -0.9514 -0.1362
  922EMI    C2"17515   4.773   1.861   2.755 -0.2330  0.0124  0.4216
  922EMI    H2"17516   4.767   1.889   2.657 -0.1816  2.7129  2.0193
  922EMI    H2"17517   4.831   1.935   2.807  1.5621  2.0186  1.0956
  922EMI    H2"17518   4.810   1.763   2.780 -0.0164  3.6805  1.1050
  923EMI     N117519   0.107   3.310   1.466  0.1265 -0.6633  0.1835
  923EMI     C217520   0.107   3.304   1.603  0.0128  0.5671 -0.3954
  923EMI     N317521   0.073   3.182   1.647 -0.1507  0.3331  0.1678
  923EMI     C417522   0.040   3.115   1.536 -0.1641 -0.0764 -0.4390
  923EMI     C517523   0.059   3.190   1.425 -0.5927  0.8455 -0.2936
  923EMI     H217524   0.135   3.382   1.668 -1.8566 -2.1823  0.6143
  923EMI     H417525   0.013   3.013   1.536  0.8703  1.3077 -3.6075
  923EMI     H517526   0.029   3.152   1.322 -1.9657 -0.4055 -0.8780
  923EMI    C1'17527   0.091   3.119   1.778  0.2723  0.6688  0.6886
  923EMI    H1'17528   0.019   3.159   1.841  0.1215 -3.3119  0.7808
  923EMI    H1'17529   0.058   3.016   1.771  0.7108  0.1111  1.1035
  923EMI    H1'17530   0.188   3.144   1.809 -0.3801  1.4322 -0.1604
  923EMI    C1"17531   0.146   3.410   1.368 -1.0884 -0.4455 -0.2296
  923EMI    H1"17532   0.191   3.366   1.278 -1.5224 -0.9410 -1.4144
  923EMI    H1"17533   0.210   3.486   1.405  0.1966 -0.4194 -1.7203
  923EMI    C2"17534   0.008   3.478   1.331  0.5800  0.1031  0.2791
  923EMI    H2"17535  -0.057   3.396   1.303  1.7195  1.2494  0.1524
  923EMI    H2"17536  -0.030   3.534   1.416  1.2823  2.0216  1.2040
  923EMI    H2"17537   0.022   3.545   1.250  1.7518  1.3333 -0.9056
  924EMI     N117538   2.650   5.267   5.065 -1.0206  0.1299 -0.4870
  924EMI     C217539   2.775   5.301   5.107  0.2447 -0.4486  0.1885
  924EMI     N317540   2.794   5.259   5.230  0.3938  0.1019  0.5741
  924EMI     C417541   2.688   5.181   5.266 -0.4040  0.1069 -0.7835
  924EMI     C517542   2.596   5.188   5.167 -0.0592  0.0544 -0.4150
  924EMI     H217543   2.843   5.359   5.049  0.8325  0.1525  0.3731
  924EMI     H417544   2.681   5.124   5.359 -1.1960 -1.2142 -0.5833
  924EMI     H517545   2.507   5.132   5.169  2.6117 -1.8971  1.1092
  924EMI    C1'17546   2.895   5.288   5.330  0.2203 -0.8298  0.2359
  924EMI    H1'17547   2.989   5.237   5.307  0.8684  0.0005  0.0750
  924EMI    H1'17548   2.916   5.395   5.325  2.4784  0.7970 -1.7374
  924EMI    H1'17549   2.864   5.271   5.436 -0.6617 -0.0102  1.5034
  924EMI    C1"17550   2.583   5.296   4.936 -0.7540 -1.1675  0.2973
  924EMI    H1"17551   2.630   5.237   4.857  0.2325 -0.1744 -0.9780
  924EMI    H1"17552   2.605   5.401   4.911 -1.0095  0.0552 -2.2184
  924EMI    C2"17553   2.430   5.284   4.945 -0.3242 -0.2898  0.0223
  924EMI    H2"17554   2.386   5.343   5.026  0.8600  0.5531  0.8359
  924EMI    H2"17555   2.387   5.307   4.851  1.6744  0.4324  1.9675
  924EMI    H2"17556   2.408   5.183   4.965  0.7511  0.6179 -0.6921
  925EMI     N117557   0.816   2.063   6.632  0.7674  0.7617 -0.2589
  925EMI     C217558   0.734   2.166   6.660 -0.5331  0.2380 -0.2709
  925EMI     N317559   0.790   2.244   6.749  0.7296  0.1342  0.0949
  925EMI     C417560   0.919   2.207   6.771  0.0431  0.5315 -0.0043
  925EMI     C517561   0.938   2.093   6.698 -0.1930 -0.3461 -0.1867
  925EMI     H217562   0.633   2.166   6.626  1.0002 -0.9625 -2.6424
  925EMI     H417563   0.999   2.257   6.823  0.9644  0.4021  3.2762
  925EMI     H517564   1.022   2.034   6.683  0.0835  0.6417 -0.9524
  925EMI    C1'17565   0.733   2.373   6.797  0.7456  0.2281 -0.2662
  925EMI    H1'17566   0.760   2.378   6.901 -0.4279 -1.6553 -1.6677
  925EMI    H1'17567   0.780   2.461   6.746 -0.9568  0.0130 -0.9052
  925EMI    H1'17568   0.623   2.376   6.782 -0.4975  0.4918  1.3994
  925EMI    C1"17569   0.815   1.947   6.540  1.2502  0.0615  0.1309
  925EMI    H1"17570   0.907   1.889   6.550  0.8024 -0.9358 -2.2774
  925EMI    H1"17571   0.813   1.978   6.435  3.1113 -2.5112  0.1089
  925EMI    C2"17572   0.698   1.859   6.570  0.4556 -0.2942 -0.2181
  925EMI    H2"17573   0.719   1.760   6.552  0.1515  2.4408  0.1172
  925EMI    H2"17574   0.671   1.875   6.677  2.4411  0.1844  2.4160
  925EMI    H2"17575   0.608   1.890   6.520  1.6883 -0.1358  1.6894
  926EMI     N117576   2.475   4.181   5.606 -0.6358  0.8413  0.3218
  926EMI     C217577   2.395   4.080   5.588  0.3696 -0.1416 -0.4560
  926EMI     N317578   2.460   3.970   5.548 -0.3934 -0.2858  0.4679
  926EMI     C417579   2.589   4.004   5.538  0.2684 -0.0215  0.7029
  926EMI     C517580   2.599   4.129   5.579 -0.0439 -0.0251 -0.7832
  926EMI     H217581   2.289   4.066   5.602 -1.2428 -2.1698 -1.8884
  926EMI     H417582   2.669   3.939   5.513  1.8289  1.1042  1.2437
  926EMI     H517583   2.689   4.187   5.595  0.0880  2.3734 -0.3437
  926EMI    C1'17584   2.399   3.843   5.518  0.7661 -0.5052 -0.7249
  926EMI    H1'17585   2.377   3.790   5.608 -0.0413  1.0040  0.7136
  926EMI    H1'17586   2.306   3.852   5.459 -1.7682  1.6357  1.6309
  926EMI    H1'17587   2.481   3.797   5.459  2.1411  1.8921  0.4071
  926EMI    C1"17588   2.448   4.319   5.637 -0.0293 -0.2001  0.5999
  926EMI    H1"17589   2.407   4.330   5.744  1.5826 -0.7116  0.4884
  926EMI    H1"17590   2.378   4.352   5.562 -0.3282 -0.2717 -0.1625
  926EMI    C2"17591   2.569   4.415   5.637 -0.5578  0.4474 -0.0108
  926EMI    H2"17592   2.599   4.431   5.534  0.6819  2.4055  1.7676
  926EMI    H2"17593   2.534   4.507   5.670 -1.2210  0.8149  0.8927
  926EMI    H2"17594   2.649   4.380   5.700 -0.1342 -1.3003  0.4942
  927EMI     N117595   3.922   4.885   3.957  0.6589 -0.1795 -0.7785
  927EMI     C217596   3.956   5.005   3.903  0.5783 -0.6638 -0.4012
  927EMI     N317597   3.852   5.090   3.922  0.3697 -0.0625 -0.1989
  927EMI     C417598   3.755   5.018   3.994  1.3064 -0.7730  0.2980
  927EMI     C517599   3.799   4.895   4.024  0.9345  0.6250 -0.3112
  927EMI     H217600   4.054   5.033   3.871  1.1375  0.9250  0.8525
  927EMI     H417601   3.660   5.053   4.027  0.2319 -1.4842 -1.3142
  927EMI     H517602   3.758   4.822   4.095 -0.0618 -3.4511  3.1516
  927EMI    C1'17603   3.833   5.226   3.868 -0.6798 -0.1497 -0.0579
  927EMI    H1'17604   3.739   5.230   3.817 -2.0164 -0.4326 -0.4479
  927EMI    H1'17605   3.831   5.300   3.949 -0.5972  1.9294 -0.6938
  927EMI    H1'17606   3.912   5.252   3.801 -1.7437  0.7622 -1.2624
  927EMI    C1"17607   4.002   4.761   3.961  0.3354 -0.0385  0.5370
  927EMI    H1"17608   3.996   4.702   3.870  0.4927 -2.0280 -0.9487
  927EMI    H1"17609   3.960   4.705   4.043 -1.5492  3.3760  1.7810
  927EMI    C2"17610   4.151   4.793   3.983 -0.5262  0.2680 -0.1636
  927EMI    H2"17611   4.161   4.845   4.080  0.2060 -3.0104  2.9429
  927EMI    H2"17612   4.200   4.702   3.992  0.7835  1.4014 -0.6525
  927EMI    H2"17613   4.201   4.838   3.896 -3.6694  0.0755  1.3330
  928EMI     N117614   3.608   5.579   4.029  0.3174  0.7602 -0.3804
  928EMI     C217615   3.709   5.578   4.112 -0.0091 -0.2350  0.1230
  928EMI     N317616   3.828   5.552   4.052 -0.1246 -0.3350 -0.3685
  928EMI     C417617   3.792   5.533   3.918 -0.1717  0.2898 -0.5839
  928EMI     C517618   3.658   5.563   3.904 -0.0757 -0.3389 -0.0155
  928EMI     H217619   3.704   5.578   4.214  0.5345 -0.7341  0.3119
  928EMI     H417620   3.859   5.501   3.835  0.7686 -0.3826  0.6693
  928EMI     H517621   3.604   5.555   3.809 -0.0677 -0.4408 -1.4185
  928EMI    C1'17622   3.955   5.538   4.110 -0.3792 -0.0072  0.4228
  928EMI    H1'17623   4.001   5.636   4.135  1.2204 -2.5208  0.0392
  928EMI    H1'17624   3.945   5.486   4.207  3.2905  1.4345 -0.8167
  928EMI    H1'17625   4.034   5.496   4.052  3.2575 -0.5226  0.2309
  928EMI    C1"17626   3.462   5.589   4.054 -0.2530 -0.2920  0.7626
  928EMI    H1"17627   3.437   5.486   4.087 -1.7507 -0.0284 -0.2003
  928EMI    H1"17628   3.405   5.620   3.962 -1.6035 -1.9087 -0.8791
  928EMI    C2"17629   3.423   5.675   4.173  0.4389 -0.4116 -0.6506
  928EMI    H2"17630   3.317   5.651   4.197 -0.8501  1.9384 -1.3344
  928EMI    H2"17631   3.477   5.633   4.256 -1.6665  1.6935 -0.2051
  928EMI    H2"17632   3.445   5.782   4.171 -0.9043  1.1825 -0.4603
  929EMI     N117633   1.990   4.362   4.259  0.7007 -0.1535 -0.2656
  929EMI     C217634   2.107   4.367   4.195  0.3118 -0.4837 -0.7053
  929EMI     N317635   2.150   4.492   4.174  0.5851 -0.2969 -0.5640
  929EMI     C417636   2.054   4.570   4.236  0.4968  0.2538 -0.2187
  929EMI     C517637   1.956   4.494   4.290  0.0435 -1.0377  0.3833
  929EMI     H217638   2.158   4.288   4.144  2.2197  0.6323 -0.3552
  929EMI     H417639   2.063   4.677   4.248  0.4885  1.0678 -4.5196
  929EMI     H517640   1.860   4.528   4.348 -0.2252  1.6754 -0.6832
  929EMI    C1'17641   2.272   4.550   4.129 -0.5227 -0.3268  0.2433
  929EMI    H1'17642   2.269   4.657   4.141 -2.0418  1.0159 -0.5007
  929EMI    H1'17643   2.353   4.504   4.190  0.5033  0.3128  1.1426
  929EMI    H1'17644   2.277   4.532   4.021 -0.2298  1.0775  0.0126
  929EMI    C1"17645   1.897   4.248   4.301 -0.5817  0.0556 -0.2788
  929EMI    H1"17646   1.841   4.213   4.215 -0.2504  0.6193 -2.5334
  929EMI    H1"17647   1.822   4.283   4.367  0.9189 -2.3533  0.8110
  929EMI    C2"17648   1.979   4.141   4.372  0.0783 -0.1122 -0.5184
  929EMI    H2"17649   2.024   4.189   4.466  0.9208  3.5980  2.1983
  929EMI    H2"17650   1.915   4.054   4.398  1.3095 -1.2447 -0.6236
  929EMI    H2"17651   2.055   4.094   4.309 -1.1644  0.6683  1.3930
  930EMI     N117652   5.436   5.441   1.927 -0.3315 -0.3259  0.2176
  930EMI     C217653   5.507   5.398   2.035 -1.3093 -1.2051  0.3425
  930EMI     N317654   5.462   5.451   2.146 -0.5357  0.3549 -0.6265
  930EMI     C417655   5.361   5.537   2.112  0.2066  0.5834  0.8168
  930EMI     C517656   5.340   5.526   1.975 -0.2305  0.6212 -0.4005
  930EMI     H217657   5.600   5.339   2.039  1.0555  2.1291 -0.7621
  930EMI     H417658   5.307   5.602   2.178  1.6118 -0.3179 -0.5092
  930EMI     H517659   5.262   5.580   1.925  0.5972  1.8502 -1.8915
  930EMI    C1'17660   5.512   5.439   2.278 -0.1195  0.5595 -0.0519
  930EMI    H1'17661   5.436   5.466   2.352  0.4077  1.0152 -0.6532
  930EMI    H1'17662   5.544   5.338   2.293  1.8452  2.0202 -3.0737
  930EMI    H1'17663   5.597   5.504   2.298  1.6059 -0.4221 -1.1559
  930EMI    C1"17664   5.478   5.429   1.789 -0.1993  0.2452  0.2732
  930EMI    H1"17665   5.542   5.334   1.774  1.4890 -1.2726 -1.5849
  930EMI    H1"17666   5.525   5.521   1.759 -0.0873 -1.8256 -0.3449
  930EMI    C2"17667   5.345   5.412   1.709 -0.1869 -0.0496  0.5307
  930EMI    H2"17668   5.363   5.373   1.608  1.1482 -2.9832 -1.0380
  930EMI    H2"17669   5.295   5.327   1.749 -0.0460 -0.9152  0.7271
  930EMI    H2"17670   5.284   5.502   1.701 -0.0532  0.5507 -2.3004
  931EMI     N117671   3.786   6.675   6.430  0.1652 -0.5142  0.3923
  931EMI     C217672   3.747   6.690   6.301 -0.1524 -0.2602 -0.9790
  931EMI     N317673   3.615   6.713   6.289  0.4806 -0.2744 -0.0486
  931EMI     C417674   3.564   6.686   6.420 -0.0310 -0.5296 -0.2818
  931EMI     C517675   3.670   6.673   6.504  0.3550  0.0939 -0.2765
  931EMI     H217676   3.811   6.700   6.216 -0.4265  0.4555 -0.9223
  931EMI     H417677   3.463   6.691   6.442  1.0193  0.0883 -2.1525
  931EMI     H517678   3.662   6.665   6.612 -0.2726  0.6523 -0.2490
  931EMI    C1'17679   3.529   6.730   6.170  0.5678  0.0189  0.2137
  931EMI    H1'17680   3.520   6.838   6.154  0.3224 -1.5790  0.2004
  931EMI    H1'17681   3.588   6.686   6.094 -2.1432 -0.1129  3.0238
  931EMI    H1'17682   3.428   6.685   6.188 -3.0692  1.2901  0.0885
  931EMI    C1"17683   3.915   6.669   6.489 -0.1510  0.3689  0.2402
  931EMI    H1"17684   3.916   6.729   6.580  2.5328 -1.0067 -0.1495
  931EMI    H1"17685   3.997   6.703   6.422  0.3281  1.1216  2.8114
  931EMI    C2"17686   3.944   6.527   6.535 -0.1410  0.2118  0.1754
  931EMI    H2"17687   4.047   6.533   6.563  0.2940  3.3261  0.3088
  931EMI    H2"17688   3.884   6.496   6.622 -1.0801  0.6016  0.7669
  931EMI    H2"17689   3.942   6.460   6.448 -2.6325 -0.0470 -0.7496
  932EMI     N117690   3.788   0.690   1.547  0.6505 -0.4668 -0.0069
  932EMI     C217691   3.814   0.712   1.417 -0.2427 -0.0086 -0.0133
  932EMI     N317692   3.892   0.825   1.408  0.4614 -0.0604  0.1281
  932EMI     C417693   3.901   0.874   1.538 -0.1568 -0.1842  0.5214
  932EMI     C517694   3.837   0.794   1.621  0.4661 -0.2169 -0.6152
  932EMI     H217695   3.775   0.657   1.328  3.4344 -0.5073 -2.2799
  932EMI     H417696   3.951   0.967   1.577  0.8968 -0.8996  0.5614
  932EMI     H517697   3.842   0.811   1.732 -0.2776  1.4916  1.0264
  932EMI    C1'17698   3.939   0.901   1.294 -0.0745 -0.0756 -0.3187
  932EMI    H1'17699   3.942   1.005   1.317 -0.1069 -2.2975 -0.6621
  932EMI    H1'17700   4.036   0.875   1.270 -1.6501 -0.5164 -1.5684
  932EMI    H1'17701   3.871   0.877   1.205 -0.2511 -0.4819 -1.1178
  932EMI    C1"17702   3.721   0.576   1.608 -0.0723  0.3410 -0.3504
  932EMI    H1"17703   3.629   0.546   1.550 -0.5772 -1.3965  2.9370
  932EMI    H1"17704   3.691   0.601   1.712 -2.8896  0.7524  0.7499
  932EMI    C2"17705   3.805   0.447   1.624 -0.0338  0.2771 -0.0624
  932EMI    H2"17706   3.743   0.364   1.665  3.1148 -1.4616  0.6630
  932EMI    H2"17707   3.826   0.405   1.524  0.3794  2.2182 -0.4344
  932EMI    H2"17708   3.899   0.455   1.672  0.5710 -2.6915  1.1449
  933EMI     N117709   1.660   4.914   5.143  0.6800 -0.3166  0.0841
  933EMI     C217710   1.791   4.892   5.155 -0.8481  0.3467 -0.2397
  933EMI     N317711   1.823   4.777   5.088  0.6904 -0.8722  0.3701
  933EMI     C417712   1.703   4.732   5.036 -0.3523 -0.2920 -0.1289
  933EMI     C517713   1.602   4.810   5.073  0.1236 -0.4766  0.4173
  933EMI     H217714   1.863   4.947   5.214 -0.3654  1.3885 -1.0827
  933EMI     H417715   1.681   4.634   4.989  0.5941  1.1912  3.7603
  933EMI     H517716   1.496   4.801   5.065  0.7425  0.1394  0.4153
  933EMI    C1'17717   1.959   4.726   5.059 -0.3983  0.5881 -0.3142
  933EMI    H1'17718   1.992   4.774   4.971 -0.1371 -0.3901 -3.5625
  933EMI    H1'17719   2.028   4.735   5.147 -0.5721 -0.5509  0.5376
  933EMI    H1'17720   1.959   4.616   5.056 -1.2576 -0.8065  1.2377
  933EMI    C1"17721   1.584   5.032   5.192  0.0543 -0.0778 -0.0581
  933EMI    H1"17722   1.480   5.013   5.169  0.8413  2.2338 -0.2024
  933EMI    H1"17723   1.620   5.121   5.147  0.6264  1.0040  2.2878
  933EMI    C2"17724   1.597   5.039   5.343 -0.3688 -0.3820 -0.5317
  933EMI    H2"17725   1.607   4.940   5.374 -2.6073  0.0964 -3.4320
  933EMI    H2"17726   1.689   5.095   5.366 -0.0411  1.3945  0.5223
  933EMI    H2"17727   1.517   5.089   5.395  1.5087 -1.4050 -0.5530
  934EMI     N117728   4.368   3.301   3.493 -0.2924  0.2056  0.0879
  934EMI     C217729   4.374   3.192   3.570  0.2683 -0.3125 -1.3998
  934EMI     N317730   4.380   3.075   3.496 -0.6089 -0.1401  0.6705
  934EMI     C417731   4.377   3.119   3.368  0.1613 -0.5024  0.4416
  934EMI     C517732   4.365   3.254   3.362  0.4404  0.5187  0.2775
  934EMI     H217733   4.374   3.187   3.673 -2.8026  2.0423 -0.1389
  934EMI     H417734   4.375   3.058   3.273 -0.5848 -0.6951 -1.6743
  934EMI     H517735   4.354   3.324   3.278  0.5750  2.0656  3.6115
  934EMI    C1'17736   4.389   2.932   3.537 -0.3920  0.5678  0.2918
  934EMI    H1'17737   4.486   2.902   3.583  2.0018 -0.4100 -0.0883
  934EMI    H1'17738   4.309   2.916   3.605 -1.9531 -0.0730 -1.2577
  934EMI    H1'17739   4.367   2.867   3.451  2.0293  1.5324 -0.7619
  934EMI    C1"17740   4.377   3.445   3.526  0.0174  0.3188 -0.1569
  934EMI    H1"17741   4.460   3.474   3.462  0.1654 -2.5653  0.1471
  934EMI    H1"17742   4.393   3.463   3.633 -0.8881  1.9400 -1.4805
  934EMI    C2"17743   4.257   3.517   3.483  0.3510  0.5618  0.1031
  934EMI    H2"17744   4.177   3.499   3.556 -0.3051  0.9780  0.8884
  934EMI    H2"17745   4.270   3.624   3.479 -0.6313 -1.8053 -0.6134
  934EMI    H2"17746   4.224   3.489   3.379 -1.2583  0.5490 -2.8798
  935EMI     N117747   2.703   1.046   5.143 -0.6292  0.1617  0.0285
  935EMI     C217748   2.729   1.162   5.211 -0.7772  0.6598  1.0658
  935EMI     N317749   2.849   1.210   5.174  0.3119 -0.5048 -0.4116
  935EMI     C417750   2.896   1.119   5.083 -0.5814  0.3718 -0.6271
  935EMI     C517751   2.811   1.014   5.065 -0.1726  0.3541 -0.1034
  935EMI     H217752   2.648   1.208   5.270 -0.7897 -0.8663  1.7934
  935EMI     H417753   2.994   1.114   5.035 -0.9543  1.1890  2.2417
  935EMI     H517754   2.830   0.928   4.998 -1.3295 -2.8659  1.2716
  935EMI    C1'17755   2.895   1.342   5.202 -0.3684 -0.5418  0.3880
  935EMI    H1'17756   2.870   1.404   5.113  2.2976 -3.3949 -0.4588
  935EMI    H1'17757   2.849   1.390   5.290 -0.9461  2.2660  0.8645
  935EMI    H1'17758   3.007   1.345   5.213 -1.4230  1.6342  1.6166
  935EMI    C1"17759   2.582   0.965   5.133 -0.0554 -0.3722  0.1387
  935EMI    H1"17760   2.560   0.908   5.226 -0.6257  0.1219 -2.0491
  935EMI    H1"17761   2.592   0.878   5.063 -1.1584 -3.1566  1.0409
  935EMI    C2"17762   2.456   1.043   5.094 -0.4523  0.2523 -0.0911
  935EMI    H2"17763   2.421   1.118   5.166  2.6944  0.6392 -1.2252
  935EMI    H2"17764   2.470   1.092   5.000 -0.7386 -2.4299  1.2091
  935EMI    H2"17765   2.376   0.966   5.077 -2.1688 -1.9237 -0.2709
  936EMI     N117766   4.988   3.662   1.297 -0.1331  0.3397  0.5478
  936EMI     C217767   5.021   3.581   1.400  0.2068  0.2516  0.0841
  936EMI     N317768   4.929   3.584   1.493 -0.3910 -0.2782 -0.2443
  936EMI     C417769   4.832   3.669   1.453  0.1849 -0.2963  0.6491
  936EMI     C517770   4.866   3.721   1.333 -0.1162  0.4184  0.3119
  936EMI     H217771   5.111   3.527   1.400  0.8919  1.5448 -3.4081
  936EMI     H417772   4.743   3.697   1.507 -2.7720  0.3760 -3.4903
  936EMI     H517773   4.817   3.797   1.281  1.9743  0.2782  2.2988
  936EMI    C1'17774   4.913   3.517   1.623  0.3718  0.1207 -0.3163
  936EMI    H1'17775   4.977   3.429   1.640  0.4476 -0.4851 -2.7791
  936EMI    H1'17776   4.943   3.578   1.702 -2.3861  3.7334 -0.4170
  936EMI    H1'17777   4.809   3.493   1.635 -0.9184 -0.0155 -1.0850
  936EMI    C1"17778   5.060   3.699   1.171  0.0825 -0.0715  0.0298
  936EMI    H1"17779   5.093   3.803   1.180 -0.2792  0.0127 -0.9193
  936EMI    H1"17780   4.993   3.684   1.085  0.9492  0.0583 -2.2151
  936EMI    C2"17781   5.188   3.618   1.155 -0.3109  0.8547 -0.6946
  936EMI    H2"17782   5.233   3.631   1.058  0.3792  0.8546  1.0753
  936EMI    H2"17783   5.266   3.643   1.234  1.0253 -0.7703 -1.1187
  936EMI    H2"17784   5.168   3.506   1.159 -1.2094 -0.1393  3.0876
  937EMI     N117785   2.266   2.068   6.454  0.2139  0.4599 -0.1303
  937EMI     C217786   2.172   1.999   6.520 -0.0057 -0.1919  0.2254
  937EMI     N317787   2.170   1.869   6.484  0.1288 -0.4918 -0.7669
  937EMI     C417788   2.269   1.861   6.390 -0.1280 -0.4742 -0.0248
  937EMI     C517789   2.327   1.979   6.372 -0.0444  0.2563  0.1698
  937EMI     H217790   2.092   2.026   6.595 -3.4965  0.9139  0.1967
  937EMI     H417791   2.293   1.766   6.343  0.4222 -0.1631  0.8208
  937EMI     H517792   2.407   1.996   6.298 -0.0067  1.7453  2.3320
  937EMI    C1'17793   2.094   1.750   6.528 -0.5045  0.4118  0.5207
  937EMI    H1'17794   2.046   1.774   6.624  0.9787  2.2505  4.7337
  937EMI    H1'17795   2.020   1.736   6.460  0.5292  1.4101 -0.5758
  937EMI    H1'17796   2.154   1.661   6.541 -0.9485 -1.3907  0.8254
  937EMI    C1"17797   2.316   2.210   6.486 -0.4777 -0.4912 -0.0344
  937EMI    H1"17798   2.228   2.272   6.506  0.5571 -0.1044  0.7646
  937EMI    H1"17799   2.371   2.242   6.402 -0.4230  0.8189  1.7226
  937EMI    C2"17800   2.413   2.189   6.603  0.1621 -0.8480 -0.7436
  937EMI    H2"17801   2.363   2.120   6.670  0.5590 -1.0893  0.1658
  937EMI    H2"17802   2.511   2.146   6.565  0.0144  1.8012  0.2023
  937EMI    H2"17803   2.427   2.287   6.650  3.1570  0.4307  2.3538
  938EMI     N117804   0.169   3.453   2.236 -0.1302 -0.0343 -0.2268
  938EMI     C217805   0.248   3.434   2.339  0.7649 -0.1563  0.3253
  938EMI     N317806   0.179   3.384   2.443 -0.5716 -0.2115  0.5108
  938EMI     C417807   0.049   3.371   2.409 -0.7482  0.1842  0.0824
  938EMI     C517808   0.042   3.416   2.279 -0.0939 -0.9437 -0.1382
  938EMI     H217809   0.344   3.475   2.334 -0.5787 -2.7090  0.8875
  938EMI     H417810  -0.033   3.332   2.469  1.2744  0.8896 -0.7307
  938EMI     H517811  -0.048   3.415   2.225  0.3062  1.2258  0.1492
  938EMI    C1'17812   0.232   3.379   2.582 -0.0547  0.6821  0.1275
  938EMI    H1'17813   0.174   3.309   2.637 -1.4834 -0.1022  1.6620
  938EMI    H1'17814   0.336   3.344   2.594  2.6386 -1.1662  0.1539
  938EMI    H1'17815   0.218   3.477   2.631  1.0148  2.4477 -0.1945
  938EMI    C1"17816   0.199   3.507   2.106  0.8136 -0.2196  0.1787
  938EMI    H1"17817   0.272   3.584   2.114  2.7377 -0.7396  2.2971
  938EMI    H1"17818   0.106   3.553   2.074  0.7812  1.6217 -0.8664
  938EMI    C2"17819   0.225   3.389   2.012  0.3276  0.2692  0.1845
  938EMI    H2"17820   0.245   3.441   1.915 -0.2336  0.1679 -1.5778
  938EMI    H2"17821   0.314   3.335   2.040 -3.0258 -0.9484 -1.6779
  938EMI    H2"17822   0.135   3.335   2.001 -0.2663 -0.9445  0.8296
  939EMI     N117823   2.816   1.943   0.762  0.2321  0.0159  0.0308
  939EMI     C217824   2.889   1.882   0.850 -0.0762 -0.4621  0.3690
  939EMI     N317825   2.941   1.970   0.936  0.0565 -0.6894 -1.0663
  939EMI     C417826   2.901   2.099   0.897  0.1936  0.3936 -0.0896
  939EMI     C517827   2.810   2.076   0.796 -0.6662 -0.1472  0.3590
  939EMI     H217828   2.914   1.775   0.844 -0.8880 -0.0568  0.3669
  939EMI     H417829   2.925   2.191   0.935 -3.4330 -1.5365 -0.6511
  939EMI     H517830   2.755   2.154   0.750 -0.5743  2.0535  1.5811
  939EMI    C1'17831   3.045   1.950   1.038  0.0819  0.0656  0.4209
  939EMI    H1'17832   3.005   1.943   1.142  2.0890 -2.0715  1.6712
  939EMI    H1'17833   3.086   1.852   1.026 -0.1664  0.1102  1.1994
  939EMI    H1'17834   3.127   2.022   1.020 -0.0662  0.7640  0.0417
  939EMI    C1"17835   2.717   1.884   0.667  0.5052 -0.2953  0.1878
  939EMI    H1"17836   2.779   1.828   0.596 -0.4010  3.8995  1.6103
  939EMI    H1"17837   2.659   1.954   0.609 -0.4116  0.7583 -0.7546
  939EMI    C2"17838   2.624   1.790   0.738  0.4286  0.7828  0.1478
  939EMI    H2"17839   2.564   1.845   0.812 -0.3744 -0.4076  1.4439
  939EMI    H2"17840   2.559   1.749   0.660  0.5842 -1.0715 -2.5626
  939EMI    H2"17841   2.665   1.710   0.795  0.9387  2.1511 -0.5549
  940EMI     N117842   4.610   5.545   6.568  0.4381  0.8340  0.3691
  940EMI     C217843   4.610   5.536   6.704  0.1169  0.7138 -0.0904
  940EMI     N317844   4.557   5.424   6.745 -0.6660  0.7226  0.7645
  940EMI     C417845   4.519   5.355   6.633 -0.0447  0.6522 -0.7905
  940EMI     C517846   4.549   5.425   6.527  0.6278  0.6788  0.7649
  940EMI     H217847   4.642   5.611   6.771 -0.9531  0.0116 -1.5052
  940EMI     H417848   4.465   5.256   6.628  0.6840 -0.8330 -1.2162
  940EMI     H517849   4.516   5.401   6.429 -0.4987 -0.2436 -0.3787
  940EMI    C1'17850   4.543   5.360   6.876  0.0527 -0.6965  0.0799
  940EMI    H1'17851   4.562   5.434   6.939 -1.5845 -4.9888 -0.1377
  940EMI    H1'17852   4.439   5.327   6.880  4.0619 -0.7372 -0.2284
  940EMI    H1'17853   4.613   5.279   6.904 -0.3141 -0.7180  1.6413
  940EMI    C1"17854   4.646   5.663   6.483  0.1442  0.1164  0.1334
  940EMI    H1"17855   4.715   5.628   6.400  0.9524 -0.7059 -0.7117
  940EMI    H1"17856   4.695   5.731   6.555  1.0992 -0.4720  3.0602
  940EMI    C2"17857   4.518   5.715   6.420 -0.6260 -0.4561 -0.8040
  940EMI    H2"17858   4.461   5.762   6.506  2.6585  1.9412  0.9436
  940EMI    H2"17859   4.534   5.804   6.356  0.6638  0.0802 -0.9614
  940EMI    H2"17860   4.465   5.637   6.362  1.7754 -1.6992 -1.7037
  941EMI     N117861   5.569   2.751   6.767  0.0892 -0.1677  0.2269
  941EMI     C217862   5.631   2.635   6.730  0.4379 -0.5739 -0.0096
  941EMI     N317863   5.667   2.566   6.841  0.1929  0.4779 -0.4258
  941EMI     C417864   5.630   2.640   6.948 -0.0549 -0.4719 -0.0245
  941EMI     C517865   5.575   2.752   6.904  0.1463 -0.1536 -0.0821
  941EMI     H217866   5.646   2.611   6.629  0.2841 -1.1783  0.5922
  941EMI     H417867   5.663   2.622   7.047  1.2117 -1.5005  3.6889
  941EMI     H517868   5.552   2.825   6.973 -0.1885 -0.4044  0.2578
  941EMI    C1'17869   5.755   2.450   6.852 -0.3376 -0.8075 -0.1472
  941EMI    H1'17870   5.704   2.368   6.806  2.6811 -0.7293  2.1675
  941EMI    H1'17871   5.840   2.465   6.788 -0.5010  1.7183  0.8057
  941EMI    H1'17872   5.779   2.432   6.957  2.5119  3.0346 -2.0976
  941EMI    C1"17873   5.497   2.854   6.690 -0.2915  0.1774  0.6868
  941EMI    H1"17874   5.515   2.841   6.589  0.2161 -1.6076  1.6591
  941EMI    H1"17875   5.526   2.951   6.734 -0.9725 -0.2504  0.7505
  941EMI    C2"17876   5.350   2.834   6.712  0.9953  0.1569 -0.2661
  941EMI    H2"17877   5.317   2.735   6.675  3.5178 -0.3404  1.2784
  941EMI    H2"17878   5.326   2.838   6.820 -1.4145  1.5034  2.7799
  941EMI    H2"17879   5.295   2.911   6.658  3.4583 -0.0299 -0.7987
  942EMI     N117880   5.694   3.174   5.259 -0.7654 -0.0330 -0.4789
  942EMI     C217881   5.736   3.211   5.138 -0.5593  0.2542 -0.1370
  942EMI     N317882   5.639   3.207   5.046  0.0956  0.3627  0.2728
  942EMI     C417883   5.530   3.164   5.117  0.2496 -1.0623  0.1788
  942EMI     C517884   5.563   3.135   5.249 -0.3611 -0.3309  0.6844
  942EMI     H217885   5.835   3.247   5.116 -1.3401 -1.6913  0.1388
  942EMI     H417886   5.438   3.150   5.060 -1.1529  2.2575  1.7297
  942EMI     H517887   5.493   3.088   5.319  1.2620 -0.2487  0.8378
  942EMI    C1'17888   5.648   3.242   4.901  0.4883 -0.6832 -0.1048
  942EMI    H1'17889   5.631   3.158   4.841  1.2886  0.1006  1.3932
  942EMI    H1'17890   5.579   3.318   4.866  2.7386 -0.8748  2.7252
  942EMI    H1'17891   5.750   3.257   4.869  0.2373 -1.2187 -3.0962
  942EMI    C1"17892   5.774   3.139   5.381 -0.4306  0.2327 -0.8433
  942EMI    H1"17893   5.843   3.053   5.357 -1.8597 -2.2860 -2.0693
  942EMI    H1"17894   5.717   3.125   5.469  1.5562  2.7109 -1.9711
  942EMI    C2"17895   5.859   3.261   5.415  0.1899  0.1342  0.0623
  942EMI    H2"17896   5.944   3.277   5.349 -0.6568 -1.7174 -2.8170
  942EMI    H2"17897   5.789   3.350   5.433 -0.1701 -0.0528 -2.3626
  942EMI    H2"17898   5.897   3.242   5.517  0.9520  1.6153 -1.0828
  943EMI     N117899   6.709   1.774   4.367 -0.2813 -0.3764  0.2167
  943EMI     C217900   6.694   1.713   4.243 -0.1060 -0.7403 -0.5511
  943EMI     N317901   6.663   1.588   4.258  0.0403 -0.5143 -0.6783
  943EMI     C417902   6.657   1.562   4.393 -0.2167 -0.3714 -0.6221
  943EMI     C517903   6.688   1.672   4.456  0.1886 -0.5922 -0.3484
  943EMI     H217904   6.707   1.776   4.157 -2.5528  0.8638 -0.1560
  943EMI     H417905   6.633   1.467   4.437  0.0427  2.3730  0.5033
  943EMI     H517906   6.696   1.675   4.559 -0.8481  1.7382 -2.4631
  943EMI    C1'17907   6.641   1.479   4.162  0.4593  0.0652  0.6860
  943EMI    H1'17908   6.735   1.456   4.113  1.3864  0.2262  1.8957
  943EMI    H1'17909   6.600   1.392   4.219  1.1384 -0.1844 -0.3330
  943EMI    H1'17910   6.564   1.501   4.087 -0.5226 -1.3069 -1.0012
  943EMI    C1"17911   6.732   1.920   4.401 -0.0017 -0.1628  0.0390
  943EMI    H1"17912   6.723   1.990   4.313 -0.2387  0.4136 -2.3305
  943EMI    H1"17913   6.837   1.928   4.443  2.4214 -0.1009 -2.6373
  943EMI    C2"17914   6.626   1.977   4.491 -0.4322  0.4223  0.5275
  943EMI    H2"17915   6.533   1.986   4.434  2.9458  0.6032  3.0057
  943EMI    H2"17916   6.604   1.925   4.575  0.4805 -0.0919  0.8193
  943EMI    H2"17917   6.646   2.080   4.520  1.1981 -2.6584  2.3526
  944EMI     N117918   1.861   1.203   0.795 -0.1641 -1.1447  0.4694
  944EMI     C217919   1.848   1.083   0.738  0.1185  0.4344 -0.3197
  944EMI     N317920   1.970   1.043   0.703 -0.6624  1.1280  0.0513
  944EMI     C417921   2.059   1.133   0.752 -0.1207 -0.1477 -0.4516
  944EMI     C517922   1.989   1.235   0.810  0.0456  0.3073 -0.1369
  944EMI     H217923   1.747   1.034   0.725  3.4737  1.9299 -0.3978
  944EMI     H417924   2.171   1.131   0.744  2.0570 -2.7112  2.5334
  944EMI     H517925   2.022   1.329   0.852 -0.9597  2.0437  1.4208
  944EMI    C1'17926   2.019   0.933   0.615  0.0807 -0.0713 -0.0970
  944EMI    H1'17927   2.011   0.978   0.525  0.9459 -1.2420 -0.3202
  944EMI    H1'17928   2.116   0.895   0.641 -0.5369  0.7478 -1.3724
  944EMI    H1'17929   1.946   0.858   0.621 -1.5875 -1.9155  1.3791
  944EMI    C1"17930   1.765   1.298   0.842  0.4100  0.0642  0.6913
  944EMI    H1"17931   1.800   1.399   0.849 -0.2665 -0.0402  0.0987
  944EMI    H1"17932   1.742   1.254   0.931 -1.1842  0.6117 -1.3882
  944EMI    C2"17933   1.640   1.304   0.754 -0.2971 -0.4860  0.7842
  944EMI    H2"17934   1.620   1.201   0.734  3.7280  1.1477 -1.4641
  944EMI    H2"17935   1.563   1.358   0.801 -2.5374 -3.5155  1.5713
  944EMI    H2"17936   1.672   1.355   0.662  0.6071 -0.5159  1.1929
  945EMI     N117937   6.791   1.885   6.381 -0.2333 -0.9142 -0.3298
  945EMI     C217938   6.915   1.909   6.339 -0.5583  0.5483  1.1136
  945EMI     N317939   6.998   1.936   6.442  0.3834  0.1619  0.5476
  945EMI     C417940   6.920   1.923   6.559 -0.6279 -1.0437  0.2873
  945EMI     C517941   6.795   1.905   6.520 -0.0967  0.5161 -0.2619
  945EMI     H217942   6.949   1.900   6.234 -2.2461 -0.9040 -1.7141
  945EMI     H417943   6.953   1.946   6.657  1.5353  0.1064 -1.6763
  945EMI     H517944   6.711   1.892   6.584 -2.0236 -0.8511 -0.2221
  945EMI    C1'17945   7.143   1.952   6.451 -0.2274 -0.2246  0.7819
  945EMI    H1'17946   7.189   1.897   6.538  1.2071 -1.5673  0.8395
  945EMI    H1'17947   7.190   1.918   6.359  0.6057  1.5605 -1.6654
  945EMI    H1'17948   7.160   2.063   6.454  0.6511 -2.6359  4.6732
  945EMI    C1"17949   6.671   1.849   6.300 -0.1563 -0.4273 -0.5816
  945EMI    H1"17950   6.693   1.796   6.209  2.0087  1.5226 -0.7283
  945EMI    H1"17951   6.632   1.943   6.267  0.1853 -0.3107 -1.4409
  945EMI    C2"17952   6.576   1.762   6.383  0.1214  1.1036 -0.7694
  945EMI    H2"17953   6.491   1.736   6.331  1.2423  0.7335 -0.3155
  945EMI    H2"17954   6.623   1.667   6.406  2.6213  1.4173 -0.5879
  945EMI    H2"17955   6.546   1.817   6.475 -2.1289  0.3776  0.5761
  946EMI     N117956   3.430   3.759   1.690 -0.6336 -0.7511 -0.6392
  946EMI     C217957   3.507   3.864   1.643 -0.0191  0.9461  0.5441
  946EMI     N317958   3.547   3.843   1.521  0.1942  0.2977 -0.4217
  946EMI     C417959   3.501   3.717   1.485 -0.2547  0.2194 -0.1146
  946EMI     C517960   3.429   3.670   1.587 -0.6132 -0.2723  0.1072
  946EMI     H217961   3.535   3.954   1.703 -0.5656 -0.7976 -0.9743
  946EMI     H417962   3.522   3.665   1.396  1.6560  1.3468  0.2396
  946EMI     H517963   3.386   3.574   1.587  2.4738  0.9746 -0.5720
  946EMI    C1'17964   3.644   3.918   1.436  1.0100 -0.3524  0.1618
  946EMI    H1'17965   3.687   3.856   1.360 -2.6745 -3.0695 -2.4314
  946EMI    H1'17966   3.593   3.988   1.381  0.8580  2.6812  2.1364
  946EMI    H1'17967   3.720   3.975   1.490  1.6063  1.2231 -0.8324
  946EMI    C1"17968   3.371   3.751   1.827 -0.7545 -0.1968  0.5231
  946EMI    H1"17969   3.319   3.648   1.822  1.3571 -0.0358 -0.8710
  946EMI    H1"17970   3.291   3.821   1.836  1.3308 -0.7726 -0.1582
  946EMI    C2"17971   3.478   3.760   1.930  0.2407  0.8491 -0.2219
  946EMI    H2"17972   3.420   3.739   2.018  1.2472  0.3188 -0.6955
  946EMI    H2"17973   3.550   3.683   1.906 -0.1135 -0.7644 -0.0496
  946EMI    H2"17974   3.518   3.862   1.934  3.2256 -1.0056 -2.3598
  947EMI     N117975   6.332   1.047   6.569 -0.4994  0.1956  0.2414
  947EMI     C217976   6.442   0.992   6.619  0.1388  0.0719 -0.0904
  947EMI     N317977   6.533   0.970   6.521 -0.0371  0.3810  0.5681
  947EMI     C417978   6.474   1.016   6.406  0.5501 -0.1758  0.3594
  947EMI     C517979   6.352   1.072   6.433 -0.2404 -0.2838 -0.1741
  947EMI     H217980   6.459   0.957   6.719  0.7827  1.1412 -1.0786
  947EMI     H417981   6.534   1.013   6.311 -1.4980 -0.5895 -0.7404
  947EMI     H517982   6.278   1.121   6.366 -0.0937 -0.1683  0.9413
  947EMI    C1'17983   6.669   0.921   6.525 -0.5410 -0.0775  0.6139
  947EMI    H1'17984   6.717   0.972   6.608  1.2368 -0.9533 -2.0727
  947EMI    H1'17985   6.668   0.817   6.542  0.1722  2.1059 -2.2237
  947EMI    H1'17986   6.720   0.946   6.433 -1.4178 -2.1432  0.0084
  947EMI    C1"17987   6.209   1.074   6.640 -0.1586  0.7360 -0.7183
  947EMI    H1"17988   6.195   0.999   6.720  1.3946 -1.3962 -0.5961
  947EMI    H1"17989   6.128   1.070   6.576 -1.6232  1.1498  0.8697
  947EMI    C2"17990   6.209   1.208   6.717  0.2797  0.1598  0.1758
  947EMI    H2"17991   6.239   1.284   6.644 -1.8377  0.2823  1.1865
  947EMI    H2"17992   6.104   1.229   6.754  0.6302  1.4584  0.1001
  947EMI    H2"17993   6.282   1.207   6.797 -1.4319  1.1882  1.1463
  948EMI     N117994   6.162   3.719   2.739 -0.1189  0.4924 -0.2207
  948EMI     C217995   6.088   3.694   2.634 -0.1207  0.2194 -0.3745
  948EMI     N317996   5.975   3.628   2.670 -0.1682  0.3001 -0.0750
  948EMI     C417997   5.977   3.614   2.807  0.1534 -0.1015 -0.3247
  948EMI     C517998   6.093   3.675   2.853  0.2762 -0.4384  0.5604
  948EMI     H217999   6.104   3.722   2.531  2.5930 -0.0940 -0.9298
  948EMI     H418000   5.893   3.598   2.872 -2.2921 -1.1002 -1.3213
  948EMI     H518001   6.117   3.685   2.958 -0.7151 -1.2905 -1.3999
  948EMI    C1'18002   5.851   3.593   2.594 -0.2608  0.6401 -0.0739
  948EMI    H1'18003   5.862   3.492   2.551  0.4386 -1.0970  0.6553
  948EMI    H1'18004   5.761   3.595   2.655 -0.3767  1.4695  1.1469
  948EMI    H1'18005   5.849   3.664   2.518  2.3380 -2.8981 -2.3710
  948EMI    C1"18006   6.297   3.778   2.740  0.4057 -0.3959 -0.5768
  948EMI    H1"18007   6.357   3.732   2.661 -3.1121 -0.4963 -1.5305
  948EMI    H1"18008   6.346   3.765   2.839  1.6822  1.0150  0.5739
  948EMI    C2"18009   6.287   3.925   2.711  0.2194 -0.4870 -0.1758
  948EMI    H2"18010   6.294   3.981   2.801  1.1500  4.1716  1.4711
  948EMI    H2"18011   6.377   3.967   2.663  0.9640  1.2388 -0.4415
  948EMI    H2"18012   6.198   3.947   2.653 -0.1202 -0.2903 -1.8520
  949EMI     N118013   6.564   2.548   0.664  0.1016  0.2115  0.7870
  949EMI     C218014   6.617   2.671   0.628 -0.2831 -0.0741 -0.5077
  949EMI     N318015   6.622   2.751   0.726  0.1136  0.0988  0.4502
  949EMI     C418016   6.567   2.679   0.838  0.1432 -0.5127 -0.2959
  949EMI     C518017   6.539   2.552   0.798  0.4928  0.6945 -0.3846
  949EMI     H218018   6.648   2.694   0.523  0.3414  1.2796  1.2602
  949EMI     H418019   6.558   2.722   0.941  0.3147  0.9937 -0.9911
  949EMI     H518020   6.490   2.475   0.858 -1.3319 -1.7394  0.6507
  949EMI    C1'18021   6.649   2.895   0.717  0.5220  0.1138  0.3156
  949EMI    H1'18022   6.639   2.940   0.620  1.9653 -0.1311 -0.1082
  949EMI    H1'18023   6.578   2.948   0.783  1.4905  3.8444  1.7822
  949EMI    H1'18024   6.754   2.912   0.747  0.2909 -0.4785 -1.3522
  949EMI    C1"18025   6.538   2.427   0.583 -0.3095  0.7660  0.2033
  949EMI    H1"18026   6.433   2.401   0.588 -0.2922  0.6265  1.6626
  949EMI    H1"18027   6.595   2.344   0.633  0.6396  0.2823 -2.1181
  949EMI    C2"18028   6.586   2.423   0.432  0.3904 -0.9432  0.1654
  949EMI    H2"18029   6.585   2.332   0.379 -2.4214  1.0482  2.3800
  949EMI    H2"18030   6.521   2.484   0.370  1.8768  0.8795  0.2420
  949EMI    H2"18031   6.686   2.464   0.426  1.4391  0.1320 -1.4859
  950EMI     N118032   1.971   5.612   3.606  0.0861 -0.1866  0.5378
  950EMI     C218033   1.986   5.738   3.659 -0.5834 -0.5359 -0.2403
  950EMI     N318034   2.096   5.795   3.600 -0.0056  0.4816 -0.0270
  950EMI     C418035   2.143   5.708   3.502 -0.3910 -0.1395 -0.3334
  950EMI     C518036   2.070   5.597   3.515 -0.3110  0.3853  0.3996
  950EMI     H218037   1.930   5.784   3.742 -0.6805  1.6866  2.5950
  950EMI     H418038   2.232   5.728   3.436  4.2001  2.0759  0.0654
  950EMI     H518039   2.088   5.507   3.465 -3.7374  0.1207 -1.9295
  950EMI    C1'18040   2.154   5.930   3.613  0.4216  0.0832 -0.5548
  950EMI    H1'18041   2.261   5.933   3.622 -0.1579 -0.8603  0.0959
  950EMI    H1'18042   2.121   6.002   3.539  0.6531  0.9122 -1.1952
  950EMI    H1'18043   2.125   5.966   3.710  0.1582 -0.1615 -0.0634
  950EMI    C1"18044   1.876   5.507   3.647 -0.2397  0.6457 -0.0618
  950EMI    H1"18045   1.848   5.452   3.557 -0.0061 -1.0773 -2.1696
  950EMI    H1"18046   1.790   5.549   3.697  0.2998 -0.4094  0.4880
  950EMI    C2"18047   1.952   5.414   3.745  0.1479  0.0380  0.3980
  950EMI    H2"18048   2.027   5.350   3.696  0.9071 -0.0445 -1.6026
  950EMI    H2"18049   2.002   5.476   3.820  1.2302  1.2272 -2.1732
  950EMI    H2"18050   1.876   5.356   3.797 -2.8855  0.6341 -1.6523
  951EMI     N118051   4.900   0.989   0.098 -0.3322 -0.0221 -0.6812
  951EMI     C218052   4.918   0.858   0.114 -0.4116 -0.9925  0.3408
  951EMI     N318053   4.858   0.787   0.013  0.2824 -0.4206  0.1133
  951EMI     C418054   4.780   0.879  -0.056 -0.3223 -0.2331 -0.2355
  951EMI     C518055   4.806   0.997  -0.002 -0.6210  0.1982 -0.2983
  951EMI     H218056   4.974   0.809   0.193 -1.4628 -1.4560 -2.0877
  951EMI     H418057   4.700   0.867  -0.131  1.2962  0.2110 -2.1712
  951EMI     H518058   4.758   1.084  -0.032 -1.6682 -1.0458  0.9422
  951EMI    C1'18059   4.843   0.644  -0.011  0.2234  0.0824 -0.2390
  951EMI    H1'18060   4.910   0.613  -0.096  2.3861  0.2012 -1.4670
  951EMI    H1'18061   4.874   0.597   0.085  2.0155 -1.4804  0.0703
  951EMI    H1'18062   4.739   0.621  -0.031 -0.7137 -0.9759 -1.2972
  951EMI    C1"18063   4.929   1.112   0.178  0.6895  0.0891  0.0841
  951EMI    H1"18064   4.889   1.194   0.123  1.7455 -1.5093 -0.1136
  951EMI    H1"18065   5.038   1.125   0.179 -0.8849 -1.2859 -2.6016
  951EMI    C2"18066   4.871   1.115   0.320  0.3912 -0.0396 -0.5343
  951EMI    H2"18067   4.871   1.013   0.361  0.5376 -3.8276  1.1259
  951EMI    H2"18068   4.937   1.173   0.384 -0.4471  0.8653 -0.9630
  951EMI    H2"18069   4.766   1.150   0.327 -1.4909  1.8707  1.4022
  952EMI     N118070   1.537   5.935   1.637 -0.3936 -0.2544 -0.3866
  952EMI     C218071   1.504   5.881   1.520  0.0094 -0.6788  0.6482
  952EMI     N318072   1.421   5.776   1.548  0.1248 -0.3283  0.7486
  952EMI     C418073   1.390   5.785   1.681 -0.0218 -0.9430 -0.8447
  952EMI     C518074   1.460   5.882   1.736 -0.3378 -0.3405  0.6798
  952EMI     H218075   1.544   5.909   1.421  0.5397  0.7652 -0.3058
  952EMI     H418076   1.323   5.721   1.736 -3.2724 -0.2585 -0.3234
  952EMI     H518077   1.455   5.907   1.842 -0.6447  0.0685 -2.1193
  952EMI    C1'18078   1.364   5.671   1.467 -0.0485 -0.6508 -0.0476
  952EMI    H1'18079   1.263   5.663   1.491 -0.2950 -0.6054 -2.4937
  952EMI    H1'18080   1.371   5.694   1.363 -1.1900 -0.5009  3.9564
  952EMI    H1'18081   1.413   5.576   1.475 -0.1473  1.3731 -1.2286
  952EMI    C1"18082   1.626   6.057   1.648 -0.4739  0.3068  0.2856
  952EMI    H1"18083   1.603   6.114   1.738  1.2038 -2.8762  0.4422
  952EMI    H1"18084   1.601   6.118   1.566  3.8876  0.8126 -1.4581
  952EMI    C2"18085   1.767   6.008   1.642  1.0653 -0.3468 -0.2669
  952EMI    H2"18086   1.789   5.935   1.718 -0.3818 -1.9603 -0.2025
  952EMI    H2"18087   1.786   5.966   1.548 -1.4971 -0.7694  1.4678
  952EMI    H2"18088   1.832   6.096   1.647 -0.0105 -0.9198 -0.0563
  953EMI     N118089   1.919   6.783   2.605  0.0577 -0.3058  0.3983
  953EMI     C218090   1.865   6.813   2.485 -0.6871 -0.0997  0.3733
  953EMI     N318091   1.959   6.803   2.389  0.1160 -0.6134 -0.3233
  953EMI     C418092   2.079   6.774   2.447  0.3215 -0.4174  0.5602
  953EMI     C518093   2.055   6.770   2.579 -0.4292  0.2434 -0.8208
  953EMI     H218094   1.762   6.847   2.475  2.5730  0.2859  1.6406
  953EMI     H418095   2.169   6.765   2.395 -1.0670 -0.8116  0.2305
  953EMI     H518096   2.132   6.754   2.655  0.4868 -1.1662  2.4621
  953EMI    C1'18097   1.952   6.821   2.247  0.2933  0.1278 -0.0508
  953EMI    H1'18098   2.003   6.743   2.194 -0.2329  0.7559 -1.5445
  953EMI    H1'18099   1.847   6.833   2.224  0.5281  0.5486  0.4855
  953EMI    H1'18100   2.005   6.916   2.224  1.1728  0.6149 -1.9339
  953EMI    C1"18101   1.849   6.744   2.725  0.7927  0.4133 -0.0764
  953EMI    H1"18102   1.904   6.686   2.791 -1.0328  1.6231  0.9952
  953EMI    H1"18103   1.754   6.681   2.706  0.2605 -1.6000  1.8709
  953EMI    C2"18104   1.813   6.877   2.795 -0.5693 -0.1202  0.3035
  953EMI    H2"18105   1.763   6.845   2.887 -0.2604  2.9201 -0.0963
  953EMI    H2"18106   1.911   6.924   2.806 -0.3913 -0.4403 -2.6601
  953EMI    H2"18107   1.744   6.945   2.742  1.0661  0.4612 -1.5532
  954EMI     N118108   4.979   4.630   5.071  0.8048 -0.1783 -0.3252
  954EMI     C218109   4.973   4.520   4.993 -0.4874 -0.0227 -0.0892
  954EMI     N318110   4.878   4.438   5.037  0.0849  0.4604 -0.2309
  954EMI     C418111   4.818   4.501   5.143  0.1887 -0.2636 -0.6246
  954EMI     C518112   4.877   4.620   5.162 -0.1056  0.0030 -0.0755
  954EMI     H218113   5.041   4.482   4.920  0.5869  0.4028 -1.1640
  954EMI     H418114   4.718   4.483   5.195 -0.0660 -0.8079  1.9560
  954EMI     H518115   4.848   4.696   5.235  1.8959 -0.4623 -0.7426
  954EMI    C1'18116   4.838   4.304   5.000  0.3190  0.1240 -0.0813
  954EMI    H1'18117   4.811   4.301   4.893  1.2465  0.1979 -0.2641
  954EMI    H1'18118   4.919   4.233   5.016  0.5709 -0.2343 -1.6246
  954EMI    H1'18119   4.757   4.274   5.066  2.0627  2.3768 -0.0401
  954EMI    C1"18120   5.067   4.751   5.069 -0.3343 -0.4263  0.0051
  954EMI    H1"18121   5.167   4.734   5.111  2.1559  2.5858  1.4406
  954EMI    H1"18122   5.020   4.824   5.126 -0.7143 -2.3684 -2.9921
  954EMI    C2"18123   5.074   4.810   4.936  0.3585 -0.1004 -0.2523
  954EMI    H2"18124   4.977   4.831   4.893  0.5945  0.6200 -1.0896
  954EMI    H2"18125   5.118   4.909   4.930 -0.8887 -2.4684  0.2942
  954EMI    H2"18126   5.129   4.750   4.857 -0.6230 -1.7833  0.5057
  955EMI     N118127   4.189   0.361   2.017  0.3519 -0.2545 -0.3406
  955EMI     C218128   4.319   0.403   2.002  0.8795  0.3035 -0.6823
  955EMI     N318129   4.373   0.419   2.129 -0.0646  0.1667 -0.8159
  955EMI     C418130   4.273   0.398   2.219 -0.6808 -0.3649  0.7833
  955EMI     C518131   4.164   0.360   2.150 -0.1626 -0.4809 -0.0394
  955EMI     H218132   4.364   0.430   1.908  3.4841  0.5346  2.6167
  955EMI     H418133   4.289   0.411   2.320 -0.0349  1.6332  0.4994
  955EMI     H518134   4.066   0.343   2.188 -0.3170 -1.6844 -0.1628
  955EMI    C1'18135   4.505   0.474   2.175  0.3294  0.0397  0.3791
  955EMI    H1'18136   4.569   0.480   2.090 -0.4654 -0.0960 -0.0842
  955EMI    H1'18137   4.489   0.578   2.208 -0.0276  3.3189 -1.4941
  955EMI    H1'18138   4.547   0.411   2.253 -0.7473 -2.3647 -2.2020
  955EMI    C1"18139   4.097   0.332   1.906  0.0781  0.6568  0.2799
  955EMI    H1"18140   4.117   0.396   1.828  0.3917 -2.5271 -1.2260
  955EMI    H1"18141   3.996   0.345   1.935 -1.9412  1.8596 -0.8377
  955EMI    C2"18142   4.123   0.189   1.861  0.5736  1.3390 -0.6106
  955EMI    H2"18143   4.226   0.177   1.819  0.9532  0.6068  1.2125
  955EMI    H2"18144   4.125   0.111   1.939 -1.2170  0.8844 -0.0501
  955EMI    H2"18145   4.034   0.162   1.795  0.1727 -1.4334  0.2607
  956EMI     N118146   3.279   0.453   3.069 -0.0961  0.6213  0.0462
  956EMI     C218147   3.373   0.451   3.167  0.3272  0.7114 -0.2282
  956EMI     N318148   3.474   0.536   3.136 -0.2788 -0.3047 -0.4560
  956EMI     C418149   3.443   0.584   3.012  1.1081  0.4087 -0.2493
  956EMI     C518150   3.329   0.531   2.971  0.6393 -0.1342  0.6401
  956EMI     H218151   3.360   0.402   3.260 -0.7899 -0.4072 -5.0334
  956EMI     H418152   3.497   0.649   2.939  0.4437 -2.3583  0.5712
  956EMI     H518153   3.282   0.548   2.879  0.9871 -0.8568 -0.3661
  956EMI    C1'18154   3.586   0.584   3.213 -0.1443 -0.4089  1.1197
  956EMI    H1'18155   3.586   0.522   3.303  0.7087 -0.6995 -1.0423
  956EMI    H1'18156   3.688   0.561   3.170  1.1259  1.0090 -0.5385
  956EMI    H1'18157   3.576   0.691   3.230 -2.9728 -1.4457 -2.5803
  956EMI    C1"18158   3.158   0.368   3.050  0.0303  0.2135  0.8740
  956EMI    H1"18159   3.179   0.270   3.088  1.0400  1.5548 -0.1456
  956EMI    H1"18160   3.131   0.374   2.944 -0.2561  0.1907 -0.5578
  956EMI    C2"18161   3.044   0.421   3.128  0.2240  0.2015 -0.5734
  956EMI    H2"18162   3.000   0.507   3.075 -0.1906  0.1421 -0.4152
  956EMI    H2"18163   2.962   0.350   3.134 -1.0367 -2.1972  0.1856
  956EMI    H2"18164   3.078   0.446   3.226 -0.6058 -0.4427  1.0708
  957EMI     N118165   4.555   1.809   1.054 -0.4234 -0.3703 -0.4234
  957EMI     C218166   4.515   1.775   0.928 -0.6996 -0.7161 -0.0428
  957EMI     N318167   4.618   1.728   0.854 -0.2674 -0.2750 -0.8066
  957EMI     C418168   4.726   1.729   0.935 -0.0327 -0.5032 -0.0652
  957EMI     C518169   4.692   1.781   1.059 -0.3391 -0.3763  0.0020
  957EMI     H218170   4.416   1.779   0.894  1.1184 -1.7257  1.2933
  957EMI     H418171   4.828   1.705   0.912 -3.0139 -0.5016 -0.0270
  957EMI     H518172   4.762   1.802   1.138  0.2514  0.2794 -1.5550
  957EMI    C1'18173   4.612   1.671   0.719  0.3298  0.1187 -0.2939
  957EMI    H1'18174   4.714   1.663   0.681 -0.1133  0.8402 -3.2839
  957EMI    H1'18175   4.568   1.573   0.739 -2.0040 -0.6928  1.6217
  957EMI    H1'18176   4.549   1.729   0.658 -1.5934  2.5590 -0.7173
  957EMI    C1"18177   4.487   1.865   1.172 -0.0093  0.4702  0.2956
  957EMI    H1"18178   4.480   1.976   1.147  0.9198 -1.6420  0.8508
  957EMI    H1"18179   4.548   1.869   1.269  4.8627  1.0249  0.4722
  957EMI    C2"18180   4.347   1.816   1.185  0.5853  0.1401  0.6267
  957EMI    H2"18181   4.351   1.705   1.190 -0.1803 -2.5079  1.0191
  957EMI    H2"18182   4.290   1.844   1.270 -0.0497  0.0314  1.1800
  957EMI    H2"18183   4.286   1.852   1.110 -1.0174 -0.1078 -1.3936
  958EMI     N118184   3.577   4.256   0.367 -0.4145 -0.2938  0.4949
  958EMI     C218185   3.709   4.239   0.355  0.2030 -0.1091 -0.1050
  958EMI     N318186   3.765   4.319   0.265 -0.0258 -0.0184 -0.1309
  958EMI     C418187   3.660   4.403   0.226 -0.1779 -0.5636  0.2056
  958EMI     C518188   3.548   4.368   0.289 -0.1045 -0.4309 -0.7342
  958EMI     H218189   3.759   4.168   0.416  3.1781  1.0910 -1.4460
  958EMI     H418190   3.676   4.480   0.154  0.4440 -2.7538 -0.0479
  958EMI     H518191   3.444   4.416   0.276  0.5060 -0.4934  0.9014
  958EMI    C1'18192   3.907   4.325   0.213 -0.0928  0.1534  0.3352
  958EMI    H1'18193   3.948   4.227   0.205  0.1583 -0.5186  1.3151
  958EMI    H1'18194   3.913   4.378   0.121 -1.1886 -0.2885 -0.8924
  958EMI    H1'18195   3.957   4.382   0.294  1.6945  1.9784  1.3734
  958EMI    C1"18196   3.471   4.193   0.451 -0.6046  0.2764 -0.4832
  958EMI    H1"18197   3.410   4.126   0.391  0.6409  0.2980  0.9901
  958EMI    H1"18198   3.399   4.268   0.485  1.3991 -0.7984  0.3315
  958EMI    C2"18199   3.517   4.124   0.577  0.0812  0.1404  0.2541
  958EMI    H2"18200   3.562   4.189   0.640 -0.5306 -0.1299  0.0340
  958EMI    H2"18201   3.426   4.078   0.628 -1.5209  1.1616  0.0617
  958EMI    H2"18202   3.575   4.032   0.554 -0.6904 -1.0937 -0.2465
  959EMI     N118203   5.712   3.696   3.638  0.7703  0.2502 -0.1505
  959EMI     C218204   5.695   3.659   3.507 -0.1194 -0.0733  0.4088
  959EMI     N318205   5.602   3.735   3.448  0.2700 -0.5811 -0.6244
  959EMI     C418206   5.566   3.827   3.541 -0.5624 -0.2984 -0.2645
  959EMI     C518207   5.632   3.803   3.655  0.5069 -0.3337 -0.0623
  959EMI     H218208   5.737   3.577   3.455 -0.1885  3.1643  0.4656
  959EMI     H418209   5.492   3.905   3.527  2.3369 -0.3204  0.3672
  959EMI     H518210   5.626   3.858   3.754  2.0022 -0.5357  2.0671
  959EMI    C1'18211   5.533   3.724   3.320  0.0835 -0.7343  0.4488
  959EMI    H1'18212   5.583   3.648   3.268 -1.9437  1.0133  1.8839
  959EMI    H1'18213   5.425   3.710   3.329 -0.3351 -0.5592 -1.6491
  959EMI    H1'18214   5.551   3.815   3.259  0.8097 -1.7732  2.0526
  959EMI    C1"18215   5.806   3.652   3.745  0.1077 -0.1168 -0.5588
  959EMI    H1"18216   5.821   3.547   3.719 -1.2108 -1.4662  2.4120
  959EMI    H1"18217   5.770   3.673   3.840  0.8636 -0.0629 -1.8250
  959EMI    C2"18218   5.940   3.726   3.727 -0.1244  0.0786 -0.5696
  959EMI    H2"18219   5.930   3.832   3.760  1.0756 -0.7648  1.2468
  959EMI    H2"18220   6.010   3.668   3.793 -1.3180 -1.2390 -1.7152
  959EMI    H2"18221   5.985   3.722   3.629 -2.4353  1.1383 -1.1006
  960EMI     N118222   3.330   1.042   0.053  0.2188 -0.5353 -0.0851
  960EMI     C218223   3.328   1.063   0.188 -0.3310  0.2249 -0.4934
  960EMI     N318224   3.214   1.015   0.237 -0.0051  0.2550  0.0793
  960EMI     C418225   3.141   0.970   0.127  1.0528  0.3312  0.2465
  960EMI     C518226   3.209   0.988   0.014  0.1517 -0.1230 -0.7369
  960EMI     H218227   3.417   1.094   0.247 -3.2450  0.4995 -1.0796
  960EMI     H418228   3.043   0.919   0.128 -0.1845 -0.8132 -0.4007
  960EMI     H518229   3.184   0.951  -0.084 -1.6922 -2.6607  2.4544
  960EMI    C1'18230   3.165   0.993   0.374 -0.4228  0.5001 -0.0851
  960EMI    H1'18231   3.186   0.892   0.403 -1.4049 -0.3939  0.0372
  960EMI    H1'18232   3.226   1.058   0.441 -2.9271 -0.3734  4.8810
  960EMI    H1'18233   3.057   1.017   0.381 -0.1226 -0.8484  0.6822
  960EMI    C1"18234   3.427   1.084  -0.048 -0.3179  0.0072  0.2964
  960EMI    H1"18235   3.461   0.992  -0.098  0.5938 -0.1056 -0.4091
  960EMI    H1"18236   3.517   1.122   0.003  0.7309 -0.4770  0.5367
  960EMI    C2"18237   3.384   1.188  -0.145  0.7111 -0.3709  0.2084
  960EMI    H2"18238   3.360   1.284  -0.087 -1.2663  1.5007  1.3835
  960EMI    H2"18239   3.458   1.213  -0.216  1.0064 -0.3658 -0.6621
  960EMI    H2"18240   3.303   1.145  -0.205  1.3630 -1.3061 -0.8320
  961EMI     N118241   6.066   5.456   6.097 -0.1662  0.9370  0.4512
  961EMI     C218242   6.140   5.566   6.091  0.5634 -0.1777 -0.1521
  961EMI     N318243   6.084   5.665   6.166 -0.7638  0.0027  0.5112
  961EMI     C418244   5.974   5.606   6.224 -0.5836 -0.1994  0.6697
  961EMI     C518245   5.959   5.481   6.178  0.4728 -0.9310 -0.5693
  961EMI     H218246   6.244   5.575   6.053  2.8439  1.0358 -1.1180
  961EMI     H418247   5.906   5.653   6.293 -0.1857 -2.1001 -0.2080
  961EMI     H518248   5.875   5.411   6.187 -1.5434 -1.7405  0.5632
  961EMI    C1'18249   6.113   5.811   6.185 -0.6718 -0.4144  0.3769
  961EMI    H1'18250   6.097   5.849   6.081 -0.1666  1.7810  0.7659
  961EMI    H1'18251   6.041   5.855   6.254  3.0919  0.0235  0.7630
  961EMI    H1'18252   6.218   5.816   6.212  0.6310 -0.5157 -1.4443
  961EMI    C1"18253   6.089   5.317   6.049  0.9142 -0.6816 -0.0677
  961EMI    H1"18254   6.008   5.258   6.064  1.6374 -0.7715  1.5038
  961EMI    H1"18255   6.172   5.273   6.108  0.8994 -2.3519 -2.1540
  961EMI    C2"18256   6.120   5.315   5.902  0.0979  0.1765  0.2600
  961EMI    H2"18257   6.112   5.211   5.862  2.3412  0.7432 -0.0713
  961EMI    H2"18258   6.053   5.381   5.848  1.4133  1.1080  1.7396
  961EMI    H2"18259   6.223   5.352   5.892 -0.5966 -0.2032  0.6908
  962EMI     N118260   3.204   1.358   3.921  0.2651  0.6678  0.3247
  962EMI     C218261   3.124   1.254   3.910 -0.3352  0.3222  1.1787
  962EMI     N318262   3.137   1.196   3.788  0.3312 -0.4469 -0.4586
  962EMI     C418263   3.240   1.262   3.724  0.2720 -0.1329  0.0506
  962EMI     C518264   3.272   1.368   3.802  0.4171  0.0292 -0.2401
  962EMI     H218265   3.057   1.216   3.981  0.2281 -1.5202 -0.2191
  962EMI     H418266   3.266   1.236   3.620 -0.5321  2.1502  2.2719
  962EMI     H518267   3.348   1.438   3.785  0.0453 -2.6495  2.3398
  962EMI    C1'18268   3.095   1.067   3.739 -0.4267  0.3444 -0.3264
  962EMI    H1'18269   3.059   1.080   3.636 -0.6523  1.5580  1.1639
  962EMI    H1'18270   3.178   0.990   3.740 -1.6183 -0.5710  3.1592
  962EMI    H1'18271   3.022   1.033   3.812  3.5381 -0.7875  1.1989
  962EMI    C1"18272   3.218   1.458   4.031 -0.2543 -0.0222 -0.5377
  962EMI    H1"18273   3.249   1.553   3.985 -0.0715  1.5320  1.9337
  962EMI    H1"18274   3.292   1.417   4.100 -1.0728 -0.9044 -0.5269
  962EMI    C2"18275   3.089   1.464   4.108  0.0432  0.7276 -0.1753
  962EMI    H2"18276   3.084   1.375   4.173 -1.1705 -0.9957 -0.0383
  962EMI    H2"18277   3.082   1.557   4.176 -1.9221  0.6885  1.3204
  962EMI    H2"18278   3.003   1.449   4.048 -0.1340 -3.3291  1.4827
  963EMI     N118279   0.321   1.182   6.081 -0.6419  0.0522  0.2518
  963EMI     C218280   0.361   1.284   5.999  0.2695  0.7804  0.1908
  963EMI     N318281   0.276   1.286   5.892  0.2486 -1.0286  0.5540
  963EMI     C418282   0.183   1.185   5.911  0.2130 -0.9463 -0.4862
  963EMI     C518283   0.211   1.123   6.029  0.6596 -0.0075 -0.0325
  963EMI     H218284   0.432   1.362   6.020 -1.0943  1.1429  0.6261
  963EMI     H418285   0.107   1.159   5.843  0.0884  1.4763  0.1341
  963EMI     H518286   0.159   1.037   6.070 -0.7297  0.6634  3.2548
  963EMI    C1'18287   0.271   1.389   5.782  0.1388 -0.0465 -0.4154
  963EMI    H1'18288   0.174   1.411   5.745  1.9918 -0.5685 -2.1876
  963EMI    H1'18289   0.317   1.488   5.813  1.4479 -0.8123 -0.0053
  963EMI    H1'18290   0.332   1.346   5.702 -1.1152 -2.5968 -1.1487
  963EMI    C1"18291   0.373   1.144   6.214 -1.2280  0.2279  0.5825
  963EMI    H1"18292   0.286   1.115   6.276 -1.4275 -0.2628  0.1104
  963EMI    H1"18293   0.424   1.227   6.263 -0.2611 -2.7847  0.4450
  963EMI    C2"18294   0.471   1.026   6.207  0.4116 -0.5063 -0.7594
  963EMI    H2"18295   0.414   0.939   6.162  1.1931  1.4168 -1.0922
  963EMI    H2"18296   0.547   1.058   6.134  0.8501  2.9608  2.7367
  963EMI    H2"18297   0.519   1.003   6.304 -1.2770 -0.2959 -0.7317
  964EMI     N118298   1.064   3.884   0.557 -0.1182 -0.2915 -0.6572
  964EMI     C218299   1.124   3.931   0.669  0.6513  0.3067 -0.0475
  964EMI     N318300   1.227   3.853   0.699  0.1120 -0.0792  0.6537
  964EMI     C418301   1.228   3.744   0.610  0.1237  0.3788  0.9493
  964EMI     C518302   1.126   3.765   0.519 -0.3842 -0.7627 -0.5412
  964EMI     H218303   1.101   4.015   0.722  2.4181 -4.2073  0.3698
  964EMI     H418304   1.298   3.663   0.613 -1.1228 -0.3547  2.2247
  964EMI     H518305   1.095   3.701   0.438 -0.7647  0.2228  1.7428
  964EMI    C1'18306   1.313   3.859   0.819  0.7688  0.3103 -0.1372
  964EMI    H1'18307   1.315   3.964   0.859  0.1433 -3.2192  1.3202
  964EMI    H1'18308   1.267   3.800   0.901 -0.0849 -1.6966  1.7284
  964EMI    H1'18309   1.419   3.836   0.801 -1.5233 -0.2120 -0.2408
  964EMI    C1"18310   0.942   3.928   0.483 -0.2650 -0.0370 -0.1828
  964EMI    H1"18311   0.923   3.863   0.391  0.9261 -0.5995 -1.0063
  964EMI    H1"18312   0.960   4.029   0.450  0.4750  0.2994 -2.8612
  964EMI    C2"18313   0.828   3.935   0.584  0.2046  0.0950  0.5944
  964EMI    H2"18314   0.819   3.841   0.636 -0.5018  2.1101  1.0667
  964EMI    H2"18315   0.848   4.007   0.666 -2.1284  2.8608  0.9130
  964EMI    H2"18316   0.742   3.966   0.529  0.3427  2.2214 -0.1831
  965EMI     N118317   3.368   1.839   4.667  0.3556 -0.0244  0.0908
  965EMI     C218318   3.246   1.901   4.669  0.9942 -0.3168  0.0603
  965EMI     N318319   3.217   1.939   4.545 -0.6780 -0.7285  0.1455
  965EMI     C418320   3.329   1.913   4.464  1.1005  0.0941 -0.3513
  965EMI     C518321   3.420   1.851   4.545 -0.4629  0.3113  0.5103
  965EMI     H218322   3.179   1.901   4.755 -0.1626 -0.3472  1.6359
  965EMI     H418323   3.340   1.934   4.359 -1.5929 -1.3331  2.0495
  965EMI     H518324   3.522   1.809   4.518 -1.8862  3.1504 -0.9546
  965EMI    C1'18325   3.093   1.994   4.493 -0.3399  1.3334  0.5696
  965EMI    H1'18326   3.089   1.969   4.385 -0.0199  0.9815  2.3516
  965EMI    H1'18327   3.012   1.962   4.553 -0.4490  2.1435 -0.1917
  965EMI    H1'18328   3.103   2.100   4.496  2.4649 -1.3632  0.7615
  965EMI    C1"18329   3.437   1.755   4.769  0.0653 -0.7025  0.1492
  965EMI    H1"18330   3.540   1.775   4.753 -2.5008  1.2605  1.3247
  965EMI    H1"18331   3.424   1.650   4.750 -3.5406 -2.9177 -3.2068
  965EMI    C2"18332   3.423   1.791   4.916  0.2756  0.5573  0.0767
  965EMI    H2"18333   3.465   1.895   4.935  1.0921  1.0108 -0.7202
  965EMI    H2"18334   3.323   1.786   4.959 -1.6718  0.0092  0.3817
  965EMI    H2"18335   3.476   1.719   4.979 -2.0945 -1.6012 -0.6027
  966EMI     N118336   6.522   3.178   2.301  0.8444  0.2607 -0.1139
  966EMI     C218337   6.496   3.175   2.430 -0.1320  0.7255  0.1346
  966EMI     N318338   6.428   3.293   2.466 -0.0868 -0.2109 -0.2830
  966EMI     C418339   6.422   3.375   2.351 -1.0325  0.5283 -0.3305
  966EMI     C518340   6.478   3.302   2.252  0.0454 -0.3154  0.8791
  966EMI     H218341   6.532   3.099   2.500 -1.4896 -1.7049 -1.2954
  966EMI     H418342   6.382   3.478   2.335 -0.4716  0.7074 -2.3023
  966EMI     H518343   6.481   3.327   2.145 -0.1452 -0.0516 -1.0899
  966EMI    C1'18344   6.384   3.347   2.600 -0.5901  0.0851  0.8164
  966EMI    H1'18345   6.475   3.356   2.666 -1.3779 -0.5147  1.5793
  966EMI    H1'18346   6.318   3.430   2.592 -0.5276  2.9720  1.6629
  966EMI    H1'18347   6.320   3.268   2.644  1.0735 -1.2037 -0.4607
  966EMI    C1"18348   6.586   3.069   2.216  0.6672 -0.6880 -0.6064
  966EMI    H1"18349   6.566   3.091   2.116  1.2816 -1.2388 -0.1162
  966EMI    H1"18350   6.547   2.973   2.241  3.7488  1.2517  0.3817
  966EMI    C2"18351   6.741   3.074   2.231  0.3392 -0.5019 -0.3087
  966EMI    H2"18352   6.783   2.993   2.179  0.6039 -0.1542 -1.6209
  966EMI    H2"18353   6.784   3.162   2.192  0.3929  1.2903  1.2327
  966EMI    H2"18354   6.767   3.079   2.341  1.8940  0.3046  1.1444
  967EMI     N118355   2.917   0.060   0.872 -0.0268 -0.2727  0.4300
  967EMI     C218356   3.025   0.109   0.933  0.4523  0.1320 -0.2455
  967EMI     N318357   3.018   0.249   0.947 -0.2161  0.1324 -0.5802
  967EMI     C418358   2.897   0.278   0.898  0.0862  0.4140  0.5105
  967EMI     C518359   2.834   0.165   0.845 -0.7055 -0.0837  0.0357
  967EMI     H218360   3.114   0.056   0.956 -0.1965  2.6207  1.4710
  967EMI     H418361   2.862   0.379   0.896 -2.6969 -0.8673 -1.8021
  967EMI     H518362   2.735   0.144   0.798  0.5090  1.7018  0.1941
  967EMI    C1'18363   3.112   0.343   1.004  0.3830  0.2102  0.4668
  967EMI    H1'18364   3.165   0.298   1.090 -2.1751 -0.3587 -0.3873
  967EMI    H1'18365   3.188   0.360   0.928  2.3988 -0.2360 -1.2658
  967EMI    H1'18366   3.050   0.431   1.021 -4.3040 -1.8723 -0.6048
  967EMI    C1"18367   2.893  -0.081   0.832 -0.4582 -0.4444 -0.4492
  967EMI    H1"18368   2.804  -0.089   0.772  1.4924 -0.0340  1.2377
  967EMI    H1"18369   2.895  -0.140   0.928 -0.1576  0.9651  0.4513
  967EMI    C2"18370   3.004  -0.124   0.748  0.2430 -0.0929 -0.0595
  967EMI    H2"18371   3.094  -0.131   0.800  1.3963  2.5597 -1.0628
  967EMI    H2"18372   2.988  -0.219   0.700 -0.7949 -1.2229  2.7348
  967EMI    H2"18373   3.015  -0.051   0.659  0.4942  1.0859 -1.4053
  968EMI     N118374   6.316   6.354   6.696 -0.0789 -0.2197  0.3068
  968EMI     C218375   6.312   6.487   6.686  0.4139  0.2455  0.7442
  968EMI     N318376   6.443   6.534   6.677 -0.4634  0.2243  0.5925
  968EMI     C418377   6.526   6.427   6.676  0.1975  0.4030  0.9366
  968EMI     C518378   6.449   6.318   6.684 -0.0954  0.0243  0.0092
  968EMI     H218379   6.223   6.552   6.695  1.6832 -1.2406  1.6229
  968EMI     H418380   6.630   6.442   6.650  0.1526  0.2382  0.3415
  968EMI     H518381   6.488   6.217   6.665 -0.9856 -2.3822 -0.5759
  968EMI    C1'18382   6.485   6.675   6.673 -0.1089 -0.9661 -0.5193
  968EMI    H1'18383   6.436   6.737   6.747  2.0770 -0.8537 -1.8805
  968EMI    H1'18384   6.597   6.672   6.686  1.9839 -2.6635 -1.5984
  968EMI    H1'18385   6.456   6.714   6.567 -0.7969  0.1912  1.1577
  968EMI    C1"18386   6.207   6.258   6.708 -0.7287  0.2304 -0.2411
  968EMI    H1"18387   6.144   6.292   6.781  1.2090 -0.5928 -0.6121
  968EMI    H1"18388   6.254   6.163   6.752  2.0202 -0.3643  0.9287
  968EMI    C2"18389   6.137   6.236   6.575  0.1610  0.2491 -0.3132
  968EMI    H2"18390   6.083   6.325   6.549 -0.6003  0.1542  0.9926
  968EMI    H2"18391   6.202   6.203   6.495 -0.5805 -2.9291 -2.1062
  968EMI    H2"18392   6.066   6.153   6.591 -0.7631 -0.5879  0.9686
  969EMI     N118393   2.636   4.725   1.484  0.5351 -0.8824 -0.9334
  969EMI     C218394   2.761   4.735   1.427  0.0221 -0.0225  0.3593
  969EMI     N318395   2.836   4.817   1.499 -0.4027  0.3211 -0.4364
  969EMI     C418396   2.758   4.856   1.608  0.0385  0.0778  1.1088
  969EMI     C518397   2.636   4.801   1.600  0.3498  0.2439  0.2137
  969EMI     H218398   2.784   4.703   1.326 -2.3387 -0.9197  0.6903
  969EMI     H418399   2.780   4.921   1.691  1.3394 -1.5429 -2.1644
  969EMI     H518400   2.554   4.807   1.672  0.1189  0.1045 -1.2445
  969EMI    C1'18401   2.974   4.858   1.480  0.2165 -0.2314 -0.0042
  969EMI    H1'18402   2.983   4.941   1.410 -0.1829  1.6199  0.8312
  969EMI    H1'18403   3.002   4.900   1.581 -0.7146 -2.2984  0.8986
  969EMI    H1'18404   3.043   4.781   1.460 -0.1827 -2.0129  1.1721
  969EMI    C1"18405   2.522   4.636   1.445  0.4880  0.0013  0.3013
  969EMI    H1"18406   2.509   4.561   1.526 -1.2168  0.5455  1.1453
  969EMI    H1"18407   2.539   4.568   1.369  1.4070 -1.2909  0.2124
  969EMI    C2"18408   2.393   4.707   1.421  0.1577 -0.3027 -0.8773
  969EMI    H2"18409   2.318   4.639   1.391 -0.8241 -0.9294 -0.6911
  969EMI    H2"18410   2.363   4.749   1.510 -1.1985  1.0695 -0.3390
  969EMI    H2"18411   2.410   4.782   1.348  0.6693 -3.0856  1.4024
  970EMI     N118412   0.668   2.402   2.283 -0.3312  0.4766  0.4382
  970EMI     C218413   0.784   2.392   2.216  0.3521  0.0445 -0.2027
  970EMI     N318414   0.813   2.504   2.161 -0.1175 -0.3042 -0.4488
  970EMI     C418415   0.711   2.593   2.197  0.2984 -0.0435 -0.3675
  970EMI     C518416   0.621   2.530   2.274 -0.9745 -0.9947 -0.4853
  970EMI     H218417   0.836   2.303   2.207  1.6886  1.9003  1.0172
  970EMI     H418418   0.703   2.698   2.171  0.4472 -0.6898  0.8133
  970EMI     H518419   0.534   2.564   2.327 -0.3857  0.1482 -0.2769
  970EMI    C1'18420   0.923   2.537   2.073 -0.1094  0.1655 -0.7983
  970EMI    H1'18421   0.958   2.626   2.114  0.2888 -0.1551 -0.5164
  970EMI    H1'18422   0.999   2.464   2.073  1.1963  0.1196 -1.1468
  970EMI    H1'18423   0.879   2.548   1.973 -0.7678  2.2024 -0.9542
  970EMI    C1"18424   0.601   2.290   2.363  0.7044  1.2123  0.2659
  970EMI    H1"18425   0.588   2.207   2.299  0.6130  0.5637  2.8916
  970EMI    H1"18426   0.500   2.315   2.391 -0.3308 -0.0940  0.8183
  970EMI    C2"18427   0.690   2.226   2.473 -0.1133 -0.0717 -1.0389
  970EMI    H2"18428   0.722   2.299   2.545  1.1235 -0.3608 -0.1718
  970EMI    H2"18429   0.641   2.148   2.529  0.8809 -1.6309 -0.3326
  970EMI    H2"18430   0.776   2.188   2.425 -0.1292 -1.5758 -0.2297
  971EMI     N118431   5.620   0.716   6.653  0.0477  0.4559 -0.1612
  971EMI     C218432   5.587   0.588   6.619 -0.7560 -0.8453  0.1055
  971EMI     N318433   5.454   0.581   6.616  0.0853  0.2604  0.5583
  971EMI     C418434   5.401   0.701   6.649 -0.1287  0.5422 -0.2979
  971EMI     C518435   5.501   0.789   6.670  0.2888  0.2710 -0.1464
  971EMI     H218436   5.653   0.504   6.595  0.5003 -0.0351  2.2614
  971EMI     H418437   5.295   0.726   6.662  1.0803  0.7426  2.5557
  971EMI     H518438   5.492   0.889   6.708  2.0340  0.0395  1.3276
  971EMI    C1'18439   5.378   0.468   6.579  0.3951 -0.1064 -0.0114
  971EMI    H1'18440   5.389   0.381   6.643  0.0723 -1.4134  3.4008
  971EMI    H1'18441   5.274   0.497   6.573 -0.0049  0.1545  4.7018
  971EMI    H1'18442   5.405   0.435   6.475 -0.7464 -2.5554  1.4447
  971EMI    C1"18443   5.752   0.768   6.663 -0.2389 -0.5042  0.3563
  971EMI    H1"18444   5.809   0.716   6.584 -1.2955 -3.0891  0.1054
  971EMI    H1"18445   5.801   0.738   6.756  1.1502  0.3645  0.0100
  971EMI    C2"18446   5.777   0.918   6.625 -0.0861  0.0276 -0.1668
  971EMI    H2"18447   5.716   0.947   6.540  0.3582 -0.1115  1.5675
  971EMI    H2"18448   5.753   0.980   6.709 -0.0744 -0.9544  0.5079
  971EMI    H2"18449   5.875   0.926   6.590 -3.3343  1.1401  1.7491
  972EMI     N118450   3.357   5.428   0.982 -0.3228  0.9597 -0.1693
  972EMI     C218451   3.409   5.371   1.093  0.1580  0.5777 -0.2534
  972EMI     N318452   3.420   5.233   1.077 -0.1730 -0.1200 -0.7809
  972EMI     C418453   3.368   5.201   0.956  0.2534  1.1953 -0.2119
  972EMI     C518454   3.336   5.315   0.893  0.2413 -0.1319 -0.2817
  972EMI     H218455   3.440   5.418   1.185 -1.0432 -0.3660  0.3745
  972EMI     H418456   3.369   5.103   0.918 -1.3857 -2.4397 -0.1812
  972EMI     H518457   3.296   5.319   0.791 -1.3123 -1.7287  0.0320
  972EMI    C1'18458   3.477   5.135   1.176  0.7064 -0.2098  0.3492
  972EMI    H1'18459   3.588   5.145   1.174  2.2546  2.6441 -0.6187
  972EMI    H1'18460   3.441   5.139   1.279  2.2697  1.4868 -0.5848
  972EMI    H1'18461   3.454   5.033   1.145 -0.6914 -2.2879 -2.5397
  972EMI    C1"18462   3.332   5.569   0.945  0.2942  0.9023 -0.2286
  972EMI    H1"18463   3.229   5.591   0.977  1.4587 -1.7556  2.0488
  972EMI    H1"18464   3.334   5.590   0.837 -0.6450  3.0245 -2.0253
  972EMI    C2"18465   3.437   5.657   1.011  0.3183 -0.1013  0.0856
  972EMI    H2"18466   3.543   5.622   0.997  0.2722  1.2290  0.5254
  972EMI    H2"18467   3.434   5.757   0.990 -0.4615 -1.6006 -2.7742
  972EMI    H2"18468   3.412   5.657   1.112  0.1390  2.2553  0.5128
  973EMI     N118469   2.931   3.656   5.754 -0.0140 -0.1134 -0.7577
  973EMI     C218470   2.990   3.533   5.778  0.4614 -0.7233  0.1030
  973EMI     N318471   3.113   3.562   5.831  0.4836 -0.4128 -0.4794
  973EMI     C418472   3.128   3.697   5.848 -0.1016  0.7887 -0.8104
  973EMI     C518473   3.010   3.756   5.811  0.5689  0.0673 -0.4143
  973EMI     H218474   2.959   3.432   5.743  0.2451 -3.5160 -0.0200
  973EMI     H418475   3.218   3.746   5.884  2.4408  0.2366  1.7419
  973EMI     H518476   2.993   3.864   5.815 -1.3979  1.3580  2.8458
  973EMI    C1'18477   3.221   3.469   5.859  0.0864  0.0273 -0.1800
  973EMI    H1'18478   3.297   3.454   5.775  3.4436  0.2673 -0.2732
  973EMI    H1'18479   3.283   3.491   5.950 -1.5337 -0.8097 -0.2160
  973EMI    H1'18480   3.178   3.363   5.872 -0.8532  0.7013 -1.7693
  973EMI    C1"18481   2.797   3.677   5.688  0.1704 -0.4530 -0.2200
  973EMI    H1"18482   2.790   3.605   5.605  0.6417  1.8122 -0.7147
  973EMI    H1"18483   2.784   3.775   5.645  1.0469 -2.3167 -1.5103
  973EMI    C2"18484   2.674   3.657   5.789  0.4366 -0.3400 -0.2101
  973EMI    H2"18485   2.698   3.681   5.890  1.4909  2.1624 -0.3113
  973EMI    H2"18486   2.603   3.723   5.742  1.1152 -0.1641 -0.5185
  973EMI    H2"18487   2.627   3.556   5.778  1.4632  0.0855  1.0305
  974EMI     N118488   0.780   3.863   2.825 -0.0206 -0.0307 -0.7544
  974EMI     C218489   0.788   3.970   2.900 -0.8484 -0.8238  0.1975
  974EMI     N318490   0.706   3.960   3.003 -0.5850  0.1766 -0.3198
  974EMI     C418491   0.647   3.839   2.990  0.4956 -0.0963  1.0589
  974EMI     C518492   0.696   3.771   2.881  0.0709 -0.2062 -0.7670
  974EMI     H218493   0.850   4.051   2.867  0.0426 -3.8513 -0.4497
  974EMI     H418494   0.576   3.798   3.063 -2.3100 -1.4263 -0.6147
  974EMI     H518495   0.673   3.671   2.849  1.0878 -0.6243  2.4907
  974EMI    C1'18496   0.685   4.047   3.122 -0.2834 -0.1041  0.7473
  974EMI    H1'18497   0.584   4.025   3.169  0.5012 -0.3508 -2.6205
  974EMI    H1'18498   0.765   4.011   3.190  0.0604 -0.3772  1.8022
  974EMI    H1'18499   0.707   4.156   3.092  0.5883  0.4939  3.0432
  974EMI    C1"18500   0.860   3.819   2.708  0.4602 -0.5606  0.1910
  974EMI    H1"18501   0.881   3.713   2.707  0.4319 -2.6820  0.4620
  974EMI    H1"18502   0.943   3.895   2.706  0.8029 -1.1961 -0.9017
  974EMI    C2"18503   0.793   3.837   2.577 -0.3791  0.0838  0.2585
  974EMI    H2"18504   0.830   3.773   2.491  0.7291 -1.2389  0.6888
  974EMI    H2"18505   0.685   3.819   2.583 -1.5828  1.3915  0.7383
  974EMI    H2"18506   0.810   3.944   2.547  0.2964  1.5987 -0.7969
  975EMI     N118507   2.943   4.098   1.873 -0.0271  0.3906 -0.2147
  975EMI     C218508   2.849   4.037   1.799 -0.6060  0.5190  0.2659
  975EMI     N318509   2.725   4.079   1.819  0.3594  1.2243 -0.7383
  975EMI     C418510   2.739   4.172   1.919  0.6670 -0.0279  0.6119
  975EMI     C518511   2.870   4.192   1.945 -0.4596  0.4597 -0.3719
  975EMI     H218512   2.874   3.958   1.724  0.1452 -0.2407 -0.7140
  975EMI     H418513   2.648   4.225   1.951 -0.6746  0.8110  0.6989
  975EMI     H518514   2.922   4.263   2.006 -0.3351 -1.4714  0.2966
  975EMI    C1'18515   2.595   4.037   1.764 -0.1994 -0.1838 -0.1769
  975EMI    H1'18516   2.545   4.124   1.729  0.9434 -1.9584  0.9108
  975EMI    H1'18517   2.618   3.961   1.685  0.1775 -0.5628  0.9184
  975EMI    H1'18518   2.526   3.989   1.833 -0.5036  2.3838  2.3934
  975EMI    C1"18519   3.087   4.097   1.890  0.6850  0.1993 -0.5138
  975EMI    H1"18520   3.115   3.991   1.864 -1.1266 -1.5925 -2.8810
  975EMI    H1"18521   3.120   4.126   1.989  0.2364 -0.6784  2.2430
  975EMI    C2"18522   3.160   4.194   1.802  0.4735 -0.1642  0.4071
  975EMI    H2"18523   3.098   4.214   1.710 -0.6610  0.6756 -1.7425
  975EMI    H2"18524   3.180   4.281   1.855 -0.5898 -4.5564 -0.3823
  975EMI    H2"18525   3.253   4.144   1.775 -2.1348 -1.8402 -1.6302
  976EMI     N118526   5.446   0.321   6.032 -0.2562  0.0796 -0.3949
  976EMI     C218527   5.524   0.390   5.940 -0.5843 -0.1146  0.2257
  976EMI     N318528   5.488   0.521   5.957 -0.1544  0.5106 -0.2577
  976EMI     C418529   5.399   0.531   6.053  0.4199  0.2674  0.3634
  976EMI     C518530   5.367   0.406   6.097  0.3276  0.2093  0.4639
  976EMI     H218531   5.579   0.361   5.851 -1.2193 -0.7798  0.4988
  976EMI     H418532   5.358   0.627   6.083 -0.9228 -0.5154  2.0872
  976EMI     H518533   5.304   0.378   6.174  0.2383 -0.6915  1.3025
  976EMI    C1'18534   5.541   0.644   5.884  0.4297  0.8903  0.4428
  976EMI    H1'18535   5.466   0.701   5.827 -2.4036 -1.4734 -0.8745
  976EMI    H1'18536   5.582   0.701   5.968 -0.7478  2.0696 -1.2484
  976EMI    H1'18537   5.621   0.616   5.824 -2.5279  2.0136 -0.0557
  976EMI    C1"18538   5.448   0.170   6.054 -0.4294  0.3352 -0.2714
  976EMI    H1"18539   5.384   0.139   6.134 -0.4065  3.7037 -1.2697
  976EMI    H1"18540   5.551   0.150   6.081  0.2432 -0.4025  0.7095
  976EMI    C2"18541   5.404   0.089   5.927 -0.9721 -0.0742  0.3944
  976EMI    H2"18542   5.309   0.107   5.904  0.2897  0.8407  0.8463
  976EMI    H2"18543   5.467   0.119   5.845  0.5945 -1.0747  0.9252
  976EMI    H2"18544   5.418  -0.018   5.949 -0.0327 -1.1058 -2.6590
  977EMI     N118545   2.488   3.379   0.707  0.0742 -0.4486 -0.0680
  977EMI     C218546   2.607   3.357   0.653 -0.1562 -0.2031 -0.6043
  977EMI     N318547   2.697   3.317   0.744 -0.3968 -0.2641 -0.2843
  977EMI     C418548   2.627   3.319   0.865 -0.1052 -0.4262 -0.0674
  977EMI     C518549   2.505   3.366   0.844  0.1834  0.0164  0.1926
  977EMI     H218550   2.629   3.373   0.549  3.7091  0.9611 -1.1189
  977EMI     H418551   2.674   3.293   0.955  0.1993 -1.4203 -0.7402
  977EMI     H518552   2.432   3.396   0.919 -0.1432  3.6872  1.8156
  977EMI    C1'18553   2.843   3.284   0.738  0.3724 -0.2827 -0.5547
  977EMI    H1'18554   2.862   3.221   0.651  1.1850  2.4727 -2.4693
  977EMI    H1'18555   2.899   3.375   0.716 -0.8490 -0.8365  1.4398
  977EMI    H1'18556   2.884   3.225   0.815 -1.1792 -1.1377 -1.8186
  977EMI    C1"18557   2.374   3.449   0.652 -0.2512 -0.2935  0.4431
  977EMI    H1"18558   2.386   3.564   0.652 -0.3377  1.7658 -0.3974
  977EMI    H1"18559   2.281   3.418   0.697 -0.5965 -1.6604 -1.0000
  977EMI    C2"18560   2.359   3.403   0.503 -0.2124 -0.7650  0.2452
  977EMI    H2"18561   2.277   3.455   0.453 -0.6983  0.3455 -0.1352
  977EMI    H2"18562   2.447   3.418   0.442 -2.1075  3.2052 -3.2562
  977EMI    H2"18563   2.335   3.296   0.490  0.6607 -0.7152 -0.3161
  978EMI     N118564   4.159   6.422   0.177  0.0817  0.5188  0.0104
  978EMI     C218565   4.254   6.515   0.200  0.5949 -0.6782  0.3220
  978EMI     N318566   4.339   6.474   0.290 -0.0743  0.3546  0.7505
  978EMI     C418567   4.295   6.350   0.333 -0.3505 -0.0519 -0.9757
  978EMI     C518568   4.191   6.320   0.259 -0.3171 -0.1896 -0.0238
  978EMI     H218569   4.250   6.603   0.146 -0.4782  0.5243 -0.0764
  978EMI     H418570   4.340   6.288   0.406 -1.8461  0.9922  1.4176
  978EMI     H518571   4.143   6.224   0.258 -0.2785 -3.7927  0.7823
  978EMI    C1'18572   4.453   6.547   0.346  0.3016 -0.6487 -0.6791
  978EMI    H1'18573   4.473   6.508   0.443  0.5394 -0.0979 -2.5006
  978EMI    H1'18574   4.530   6.526   0.275 -2.9482 -0.1679 -1.7162
  978EMI    H1'18575   4.428   6.658   0.349 -0.9043  1.9410  1.1072
  978EMI    C1"18576   4.053   6.421   0.073  0.1935 -0.3164  0.9099
  978EMI    H1"18577   4.065   6.487  -0.009 -1.7392 -3.7375 -0.2107
  978EMI    H1"18578   3.967   6.456   0.121  1.9509 -0.9891  0.6949
  978EMI    C2"18579   4.018   6.283   0.013 -0.8772  0.6708  0.2283
  978EMI    H2"18580   4.022   6.203   0.087  1.6022 -2.2852 -0.8577
  978EMI    H2"18581   3.923   6.292  -0.043  0.4676 -0.5506 -3.0710
  978EMI    H2"18582   4.093   6.255  -0.063 -0.0126 -0.5391 -0.9971
  979EMI     N118583   0.399   4.608   2.328  0.2934  0.0899  0.7398
  979EMI     C218584   0.420   4.563   2.203 -0.1673 -0.1359 -0.4401
  979EMI     N318585   0.540   4.602   2.163 -0.3542 -0.4827  0.1422
  979EMI     C418586   0.591   4.681   2.265  0.0968  0.1470 -0.1199
  979EMI     C518587   0.499   4.691   2.361 -0.0797 -0.0109 -0.5862
  979EMI     H218588   0.351   4.505   2.149 -1.8117 -0.7494  0.9294
  979EMI     H418589   0.686   4.726   2.268  0.2830  1.4775  0.7057
  979EMI     H518590   0.496   4.745   2.455  1.9541  0.3941 -2.3160
  979EMI    C1'18591   0.592   4.603   2.025  0.5790 -0.3352 -0.5620
  979EMI    H1'18592   0.518   4.659   1.960 -2.0495  0.5684 -1.9510
  979EMI    H1'18593   0.689   4.655   2.022  0.3352 -1.1426 -1.9049
  979EMI    H1'18594   0.597   4.498   1.997 -1.5194 -1.8864 -1.5137
  979EMI    C1"18595   0.284   4.584   2.425  0.3365  0.2155  0.1989
  979EMI    H1"18596   0.193   4.602   2.372  0.8685  0.8887 -1.3620
  979EMI    H1"18597   0.290   4.660   2.501  0.2383  1.5789 -1.0589
  979EMI    C2"18598   0.287   4.442   2.486 -0.6514  0.9185 -0.8473
  979EMI    H2"18599   0.384   4.435   2.530  0.6167 -0.6689  0.3931
  979EMI    H2"18600   0.205   4.438   2.560 -0.7515  1.4201 -3.8055
  979EMI    H2"18601   0.266   4.378   2.405  0.7796  0.9528 -0.7399
  980EMI     N118602   1.194   2.420   2.923  0.4706 -0.4609  0.6043
  980EMI     C218603   1.298   2.501   2.942  0.3582 -0.0116  0.2518
  980EMI     N318604   1.388   2.479   2.844 -0.1548 -0.4066  0.9775
  980EMI     C418605   1.331   2.392   2.749  0.0838 -0.1462 -0.3785
  980EMI     C518606   1.208   2.360   2.799 -0.0099  0.4668 -0.3560
  980EMI     H218607   1.313   2.569   3.026  1.8766  1.3322  0.1396
  980EMI     H418608   1.362   2.364   2.642  1.3079 -1.6914  0.4083
  980EMI     H518609   1.126   2.307   2.754  1.2724 -0.9321 -0.8127
  980EMI    C1'18610   1.518   2.541   2.831 -0.7482  0.6059 -0.3553
  980EMI    H1'18611   1.517   2.649   2.841  2.8621  2.1131 -0.0403
  980EMI    H1'18612   1.569   2.506   2.916 -1.4589 -0.4584  1.7098
  980EMI    H1'18613   1.556   2.523   2.734 -2.0088  2.5604 -1.8206
  980EMI    C1"18614   1.067   2.421   3.003 -0.3041  0.5077  0.2638
  980EMI    H1"18615   0.984   2.455   2.941  1.5855 -0.8383  0.3747
  980EMI    H1"18616   1.080   2.491   3.087 -0.3223  3.2111 -1.3789
  980EMI    C2"18617   1.053   2.281   3.060  0.1213  0.3269 -0.7349
  980EMI    H2"18618   1.142   2.255   3.117  0.3448  1.2161  0.7538
  980EMI    H2"18619   0.971   2.296   3.126  2.6082 -2.6466 -0.2708
  980EMI    H2"18620   1.029   2.214   2.981 -1.6789  1.3302 -0.4438
  981EMI     N118621   3.218   1.921   1.780  0.0634  0.0014  0.2340
  981EMI     C218622   3.286   1.814   1.733 -0.6822  0.0572  0.4534
  981EMI     N318623   3.363   1.765   1.831 -1.2070 -0.0061  0.2570
  981EMI     C418624   3.343   1.840   1.941 -0.0806  0.0869 -0.5761
  981EMI     C518625   3.255   1.938   1.917  0.2797 -0.4584 -0.0215
  981EMI     H218626   3.275   1.779   1.635  0.4900 -1.3012  0.9278
  981EMI     H418627   3.398   1.840   2.031 -2.5032  0.9721  0.9651
  981EMI     H518628   3.221   2.012   2.001  0.6178 -0.1275 -0.3884
  981EMI    C1'18629   3.459   1.659   1.834 -0.4308  0.2101  0.4690
  981EMI    H1'18630   3.492   1.635   1.734 -2.4669 -1.8550 -0.4761
  981EMI    H1'18631   3.540   1.677   1.904  2.0932  0.8628 -1.3374
  981EMI    H1'18632   3.412   1.564   1.862  0.6867 -2.7973 -1.7460
  981EMI    C1"18633   3.118   2.005   1.717  0.2620  0.3394  0.3495
  981EMI    H1"18634   3.107   2.096   1.773 -0.6671 -0.3019  1.5352
  981EMI    H1"18635   3.020   1.951   1.721  1.1778  0.3214 -1.7346
  981EMI    C2"18636   3.157   2.037   1.572  0.0793  0.0937 -0.4280
  981EMI    H2"18637   3.074   2.090   1.528  1.5312  0.4202  1.6211
  981EMI    H2"18638   3.238   2.106   1.569 -0.6050 -3.1417  1.9543
  981EMI    H2"18639   3.177   1.948   1.501 -0.6323  2.7725 -1.8389
  982EMI     N118640   2.131   0.805   4.375 -0.4411  0.3179 -0.0517
  982EMI     C218641   2.056   0.824   4.485  0.2599 -0.0501  0.2213
  982EMI     N318642   1.948   0.748   4.481 -0.3912 -0.7028  0.3411
  982EMI     C418643   1.965   0.672   4.366  0.2157  0.4805  0.0004
  982EMI     C518644   2.074   0.712   4.301  0.4521 -0.5538  0.7168
  982EMI     H218645   2.085   0.893   4.562  0.3585  0.2069  0.0796
  982EMI     H418646   1.889   0.592   4.337  0.3860 -6.3076  1.5916
  982EMI     H518647   2.115   0.667   4.209  1.2959 -0.8019  0.1037
  982EMI    C1'18648   1.837   0.719   4.581 -0.3427 -1.2160 -0.5121
  982EMI    H1'18649   1.822   0.610   4.589  1.3272  0.1044 -1.4625
  982EMI    H1'18650   1.872   0.761   4.678 -0.8845  0.8998  0.8069
  982EMI    H1'18651   1.742   0.769   4.552  0.5251  0.7665 -1.1897
  982EMI    C1"18652   2.247   0.882   4.325 -0.0837 -0.1986 -0.2239
  982EMI    H1"18653   2.214   0.934   4.235  0.9282  0.7161 -0.6282
  982EMI    H1"18654   2.336   0.820   4.302  2.3308 -2.1483 -0.7483
  982EMI    C2"18655   2.289   0.986   4.427  0.3751  0.0101  0.3617
  982EMI    H2"18656   2.374   1.035   4.389 -1.6902  1.1929 -2.5113
  982EMI    H2"18657   2.211   1.056   4.442  0.1670  0.3322 -0.9680
  982EMI    H2"18658   2.307   0.944   4.522 -1.2418  1.6738  0.0546
  983EMI     N118659   0.482   4.407   3.954 -0.2788  0.1984  0.4487
  983EMI     C218660   0.596   4.399   4.022  0.2125  0.0890  0.1917
  983EMI     N318661   0.627   4.263   4.039 -0.2811  0.0182 -0.6203
  983EMI     C418662   0.533   4.192   3.978 -0.4853  1.0412  0.0246
  983EMI     C518663   0.441   4.280   3.930  0.3130 -0.2282 -0.2769
  983EMI     H218664   0.653   4.477   4.068  1.5797 -0.1536  2.2001
  983EMI     H418665   0.542   4.087   3.974 -0.5173  0.7853 -0.4407
  983EMI     H518666   0.359   4.255   3.871 -1.4479 -2.7880 -1.0357
  983EMI    C1'18667   0.736   4.204   4.118 -0.4593  0.2592  0.1815
  983EMI    H1'18668   0.697   4.162   4.206 -0.6937  2.9183 -0.9869
  983EMI    H1'18669   0.783   4.132   4.055  1.2540  0.1614  1.5832
  983EMI    H1'18670   0.812   4.279   4.134  2.8404 -1.2430  0.2719
  983EMI    C1"18671   0.416   4.523   3.910  0.3197  0.0832  0.4069
  983EMI    H1"18672   0.355   4.496   3.823 -3.2303 -0.0861 -0.9514
  983EMI    H1"18673   0.495   4.592   3.880  1.6263 -1.0716  1.1792
  983EMI    C2"18674   0.321   4.588   4.020  0.7662  0.3726 -0.2547
  983EMI    H2"18675   0.382   4.652   4.086  2.0241 -0.5932  1.1173
  983EMI    H2"18676   0.251   4.659   3.983  0.9874  0.2353 -0.5930
  983EMI    H2"18677   0.275   4.516   4.081 -0.7980  1.7333 -1.5948
  984EMI     N118678   6.317   0.791   5.870 -0.0365 -0.5953  0.0950
  984EMI     C218679   6.348   0.879   5.970  0.4658 -0.0954  0.2757
  984EMI     N318680   6.290   0.994   5.942  0.1911  0.1313 -0.1969
  984EMI     C418681   6.235   0.991   5.819 -0.5251  0.5844 -0.1999
  984EMI     C518682   6.251   0.863   5.776  0.1736  0.0354  0.6131
  984EMI     H218683   6.402   0.868   6.062 -0.2045  1.1260  0.1206
  984EMI     H418684   6.204   1.073   5.762  1.8825 -1.2154  1.5070
  984EMI     H518685   6.226   0.823   5.677  0.8521 -4.3882  2.4422
  984EMI    C1'18686   6.290   1.115   6.026  0.9157 -0.6043  0.2568
  984EMI    H1'18687   6.194   1.132   6.078  0.6626  2.5110 -0.0551
  984EMI    H1'18688   6.372   1.104   6.096 -2.5037 -1.7425 -0.6178
  984EMI    H1'18689   6.308   1.199   5.953 -2.5380 -0.2163  0.5786
  984EMI    C1"18690   6.353   0.647   5.861 -0.8395  0.3394  0.5324
  984EMI    H1"18691   6.416   0.620   5.943 -0.6805  2.9800  2.1325
  984EMI    H1"18692   6.411   0.632   5.760 -0.2615 -1.3615  0.8547
  984EMI    C2"18693   6.226   0.561   5.886 -0.2610  0.6804 -0.0826
  984EMI    H2"18694   6.142   0.597   5.827  2.4028 -0.9316  2.2258
  984EMI    H2"18695   6.254   0.452   5.873  1.7279 -0.3996 -2.8934
  984EMI    H2"18696   6.208   0.579   5.990  0.5092  1.3690  0.4250
  985EMI     N118697   5.636   3.799   4.393 -0.1744 -0.0392  0.5409
  985EMI     C218698   5.504   3.802   4.387  0.8449 -0.1340  0.1450
  985EMI     N318699   5.456   3.808   4.507 -0.6842 -0.4682 -0.6346
  985EMI     C418700   5.563   3.799   4.595 -0.5848  0.2430  0.0043
  985EMI     C518701   5.675   3.783   4.523 -0.3256 -0.0406 -0.3595
  985EMI     H218702   5.448   3.809   4.295 -0.9144  1.4212 -1.4665
  985EMI     H418703   5.549   3.806   4.699 -2.5003 -0.1067  1.5817
  985EMI     H518704   5.772   3.766   4.574  2.3377  0.5909 -1.5230
  985EMI    C1'18705   5.319   3.839   4.551 -0.6660  0.1669 -0.1463
  985EMI    H1'18706   5.318   3.829   4.663  1.1719  0.5877 -1.1154
  985EMI    H1'18707   5.283   3.930   4.509  0.9826 -1.5125 -0.7691
  985EMI    H1'18708   5.259   3.760   4.500 -1.7582  1.1827  2.6293
  985EMI    C1"18709   5.731   3.811   4.280 -0.1552  0.0611 -0.6365
  985EMI    H1"18710   5.836   3.805   4.324 -1.2827 -0.6710  1.3046
  985EMI    H1"18711   5.710   3.913   4.245 -1.1792  1.7123  0.8554
  985EMI    C2"18712   5.706   3.705   4.174  0.6352  0.4837  0.1613
  985EMI    H2"18713   5.792   3.699   4.103  0.5596  1.4570 -1.1908
  985EMI    H2"18714   5.698   3.604   4.216 -0.8209  1.3523 -0.5450
  985EMI    H2"18715   5.612   3.714   4.126  1.6786  1.2089 -0.7548
  986EMI     N118716   6.681   0.697   5.543  0.4881  0.4876  0.5580
  986EMI     C218717   6.666   0.830   5.525 -0.3261  0.7652 -0.6476
  986EMI     N318718   6.619   0.885   5.635  0.2941 -0.0970 -0.1011
  986EMI     C418719   6.620   0.790   5.735 -0.2298 -0.6054  0.5120
  986EMI     C518720   6.657   0.674   5.673  0.4255 -0.4657  0.0888
  986EMI     H218721   6.682   0.880   5.430 -1.3265 -2.4611 -0.8520
  986EMI     H418722   6.589   0.805   5.846  0.8096  0.5540  1.7799
  986EMI     H518723   6.663   0.573   5.718  1.1433 -0.8683 -1.8807
  986EMI    C1'18724   6.591   1.027   5.665  0.4871 -0.1123  0.4119
  986EMI    H1'18725   6.560   1.068   5.572 -1.5940 -0.5699  0.2630
  986EMI    H1'18726   6.522   1.048   5.739 -1.5653  1.0906  0.6069
  986EMI    H1'18727   6.692   1.066   5.696  1.0613  4.0122  0.5521
  986EMI    C1"18728   6.722   0.589   5.448 -0.0025  0.4393  0.0799
  986EMI    H1"18729   6.710   0.492   5.496 -1.9604  0.8639 -4.2077
  986EMI    H1"18730   6.820   0.613   5.419  1.3592 -1.1157 -1.6379
  986EMI    C2"18731   6.624   0.595   5.336  0.6436  0.4886  0.0208
  986EMI    H2"18732   6.649   0.536   5.248 -1.1552 -2.4951 -2.5537
  986EMI    H2"18733   6.523   0.569   5.362 -0.5931 -0.1940 -0.9708
  986EMI    H2"18734   6.618   0.701   5.306 -0.0794  0.8453 -0.4734
  987EMI     N118735   1.608   0.722   4.900 -0.0616 -0.0485  0.1453
  987EMI     C218736   1.619   0.678   5.030 -0.6921  0.0188 -0.8236
  987EMI     N318737   1.574   0.556   5.039  0.0440  0.5908  0.3487
  987EMI     C418738   1.539   0.509   4.910  0.3219 -0.4122 -0.2387
  987EMI     C518739   1.568   0.609   4.824 -0.1242 -0.4995 -0.0196
  987EMI     H218740   1.669   0.731   5.112 -0.8794 -0.0056  1.0148
  987EMI     H418741   1.509   0.408   4.886  0.0893  3.2788  2.2726
  987EMI     H518742   1.563   0.603   4.712  0.4494 -1.7085  0.0381
  987EMI    C1'18743   1.573   0.464   5.150  0.4804 -0.0103 -0.6498
  987EMI    H1'18744   1.470   0.423   5.164 -0.1030  0.5562  1.3672
  987EMI    H1'18745   1.650   0.388   5.136  1.8325 -0.6352 -2.5124
  987EMI    H1'18746   1.586   0.521   5.244  0.2338  1.6044  0.5667
  987EMI    C1"18747   1.646   0.852   4.849  0.3622  1.2966 -0.6875
  987EMI    H1"18748   1.686   0.840   4.749  0.5654  2.0493  0.1348
  987EMI    H1"18749   1.714   0.897   4.919 -0.3590 -3.2806 -0.8856
  987EMI    C2"18750   1.511   0.935   4.847 -0.2109 -0.4604  0.6106
  987EMI    H2"18751   1.453   0.893   4.762 -0.0593  2.7140  0.6865
  987EMI    H2"18752   1.461   0.917   4.937  0.9251  0.7342  0.2035
  987EMI    H2"18753   1.540   1.038   4.829  3.2635 -1.9015 -2.4418
  988EMI     N118754   6.576   4.585   4.904 -0.4985 -0.1006  0.0361
  988EMI     C218755   6.677   4.670   4.913  0.1853 -0.1029 -0.0622
  988EMI     N318756   6.652   4.764   5.005 -0.9566 -0.8741 -0.1383
  988EMI     C418757   6.532   4.739   5.057  0.1148 -0.2621  0.3240
  988EMI     C518758   6.483   4.632   4.995  0.1748  0.1879  0.0508
  988EMI     H218759   6.758   4.672   4.848  1.4435  2.2863  1.7480
  988EMI     H418760   6.485   4.788   5.132 -2.4032  2.0742 -1.5614
  988EMI     H518761   6.393   4.576   5.002  2.1349  0.5500  0.6193
  988EMI    C1'18762   6.726   4.879   5.062  0.6748  0.5448  0.5805
  988EMI    H1'18763   6.830   4.850   5.069  1.0987  0.8470 -2.2010
  988EMI    H1'18764   6.724   4.968   4.993  2.4778  1.1729 -0.5102
  988EMI    H1'18765   6.679   4.914   5.152 -1.1915  0.0692  1.1767
  988EMI    C1"18766   6.552   4.461   4.825  0.2618  0.0841 -0.0194
  988EMI    H1"18767   6.505   4.489   4.728 -1.2396 -0.0720 -0.7018
  988EMI    H1"18768   6.484   4.397   4.871  1.0860  3.1267  2.6986
  988EMI    C2"18769   6.687   4.387   4.792  0.2112 -0.5192  0.4897
  988EMI    H2"18770   6.747   4.448   4.735 -0.0201  0.2832  0.7225
  988EMI    H2"18771   6.738   4.360   4.884  1.9672 -2.4137  1.8901
  988EMI    H2"18772   6.667   4.299   4.734 -1.8204  2.1554  0.4786
  989EMI     N118773   2.888   4.625   0.185  0.1376  0.9462  0.0358
  989EMI     C218774   2.798   4.614   0.289 -0.6323 -0.0948 -0.3668
  989EMI     N318775   2.719   4.507   0.277  0.0303  1.0514  0.0649
  989EMI     C418776   2.761   4.445   0.160  0.1837 -0.3702 -0.6788
  989EMI     C518777   2.867   4.515   0.110 -0.4690  0.1974 -0.5741
  989EMI     H218778   2.797   4.686   0.371 -0.9034  1.9179  1.0006
  989EMI     H418779   2.720   4.361   0.112  1.4143 -0.3755  0.6030
  989EMI     H518780   2.926   4.487   0.021 -2.0509  1.8603 -1.0804
  989EMI    C1'18781   2.643   4.433   0.377  0.0666 -0.0108  0.2823
  989EMI    H1'18782   2.691   4.340   0.409  0.1364 -0.2719 -2.4142
  989EMI    H1'18783   2.628   4.496   0.464 -0.1270 -1.2894 -1.4066
  989EMI    H1'18784   2.550   4.405   0.328 -1.1560 -0.1194  0.4116
  989EMI    C1"18785   3.005   4.722   0.161 -0.1415  0.7043 -0.2198
  989EMI    H1"18786   2.955   4.818   0.161  1.2816 -1.2525 -0.9698
  989EMI    H1"18787   3.044   4.709   0.061  3.7481  0.6548  1.0987
  989EMI    C2"18788   3.105   4.699   0.275 -0.8823  0.3095  0.1060
  989EMI    H2"18789   3.062   4.751   0.362 -3.1169  0.8392 -3.2733
  989EMI    H2"18790   3.114   4.586   0.289 -0.3244 -0.0227  0.3611
  989EMI    H2"18791   3.200   4.740   0.235  1.6410  0.6880 -2.3620
  990EMI     N118792   0.441   6.717   5.651  0.3377 -0.0896 -0.5041
  990EMI     C218793   0.457   6.672   5.528  0.4842 -0.6659 -0.0065
  990EMI     N318794   0.340   6.615   5.488 -0.2983  0.4012  0.1961
  990EMI     C418795   0.252   6.621   5.595  0.3283  0.1068  0.5965
  990EMI     C518796   0.315   6.684   5.692  0.6245  0.1466  0.3043
  990EMI     H218797   0.551   6.677   5.475  1.2422 -2.7255 -0.7832
  990EMI     H418798   0.153   6.581   5.587  1.9110 -3.1985 -0.7273
  990EMI     H518799   0.277   6.707   5.792  1.1898 -0.3605 -0.9087
  990EMI    C1'18800   0.308   6.537   5.370 -0.8182 -0.3109  0.9679
  990EMI    H1'18801   0.377   6.458   5.345  0.2541  0.1510  0.4931
  990EMI    H1'18802   0.204   6.503   5.365 -1.9135  1.2547 -0.8542
  990EMI    H1'18803   0.311   6.606   5.288 -1.5671 -1.9017 -0.7924
  990EMI    C1"18804   0.525   6.787   5.746 -0.6847 -0.1058 -0.6163
  990EMI    H1"18805   0.470   6.831   5.827  1.3382 -0.0408 -0.2047
  990EMI    H1"18806   0.576   6.863   5.691  0.6893 -0.6066 -1.2762
  990EMI    C2"18807   0.629   6.691   5.814  0.2248 -0.0716 -0.0250
  990EMI    H2"18808   0.576   6.603   5.840  1.1554  2.2900  0.2928
  990EMI    H2"18809   0.698   6.663   5.743  0.0693 -0.9117  2.4121
  990EMI    H2"18810   0.683   6.731   5.898  0.6352 -2.3014  0.1356
  991EMI     N118811   1.925   2.559   6.107  0.5613  0.2316 -0.8297
  991EMI     C218812   1.983   2.557   5.987 -0.2875 -0.3420  0.3204
  991EMI     N318813   2.093   2.475   5.988 -0.0088  0.8365  0.5702
  991EMI     C418814   2.103   2.430   6.115  0.5875  0.0121  0.2355
  991EMI     C518815   2.003   2.475   6.184 -0.3330 -0.4853  0.3107
  991EMI     H218816   1.951   2.589   5.896 -1.7873 -0.5239  1.2057
  991EMI     H418817   2.194   2.381   6.153 -0.8648 -1.0696  1.2489
  991EMI     H518818   1.996   2.468   6.301 -0.5839  1.4760  3.6705
  991EMI    C1'18819   2.185   2.437   5.881 -0.5181 -0.2870 -0.1555
  991EMI    H1'18820   2.134   2.456   5.786  0.2958  0.3370 -1.8373
  991EMI    H1'18821   2.274   2.495   5.878 -0.9665 -1.2919  0.0295
  991EMI    H1'18822   2.205   2.332   5.875 -0.4611 -0.3182  0.8405
  991EMI    C1"18823   1.802   2.633   6.154  0.0572  0.6628  0.5990
  991EMI    H1"18824   1.777   2.698   6.072 -1.5257 -0.5521 -0.1287
  991EMI    H1"18825   1.836   2.692   6.237 -2.8209 -0.3614 -1.0857
  991EMI    C2"18826   1.690   2.543   6.188 -0.2597 -0.3923  0.5190
  991EMI    H2"18827   1.677   2.464   6.109 -0.3444 -1.4802  1.3057
  991EMI    H2"18828   1.700   2.491   6.285 -1.3477 -2.4473  1.2060
  991EMI    H2"18829   1.602   2.603   6.183  0.4356 -0.7343 -0.8148
  992EMI     N118830   0.093   5.845   2.413  0.1561 -0.2589 -0.2150
  992EMI     C218831   0.048   5.864   2.540  0.3324  0.2072 -0.4769
  992EMI     N318832   0.144   5.834   2.627  0.0306 -0.2863  0.0823
  992EMI     C418833   0.256   5.795   2.552 -0.0276 -0.1605 -0.2224
  992EMI     C518834   0.223   5.793   2.418 -0.0964 -0.7799 -0.1238
  992EMI     H218835  -0.049   5.905   2.565  1.2273 -3.0733 -1.7556
  992EMI     H418836   0.346   5.758   2.603 -0.4208 -2.5051  0.3018
  992EMI     H518837   0.284   5.758   2.337 -1.3309 -2.1664  1.9922
  992EMI    C1'18838   0.141   5.847   2.773 -1.1468  0.1542 -0.0164
  992EMI    H1'18839   0.237   5.874   2.811 -2.5522 -0.2713 -0.6989
  992EMI    H1'18840   0.068   5.920   2.805  0.4186 -3.2685 -1.0973
  992EMI    H1'18841   0.107   5.748   2.809 -0.3030 -0.4737  2.6673
  992EMI    C1"18842   0.042   5.901   2.282 -0.4069  0.9405  0.3929
  992EMI    H1"18843  -0.052   5.849   2.258 -0.8355 -1.3372  0.6578
  992EMI    H1"18844   0.121   5.878   2.206  0.7409  0.5204  0.1616
  992EMI    C2"18845   0.016   6.049   2.287  0.1252  0.3578 -0.7229
  992EMI    H2"18846  -0.089   6.052   2.330 -2.9638 -0.5305 -0.3662
  992EMI    H2"18847   0.077   6.102   2.355 -0.3762 -1.2965  0.4464
  992EMI    H2"18848   0.021   6.105   2.194 -0.5029  2.0307 -1.0175
  993EMI     N118849   2.410   2.412   3.969 -0.5521 -0.0878  0.4534
  993EMI     C218850   2.449   2.472   4.082  0.3461  0.4685 -0.1762
  993EMI     N318851   2.545   2.565   4.065 -0.0782  0.0648 -0.4760
  993EMI     C418852   2.572   2.569   3.931 -0.2340  0.5791  0.0897
  993EMI     C518853   2.493   2.472   3.873  0.0505 -0.1641 -0.7075
  993EMI     H218854   2.396   2.456   4.175  0.3603  0.9110 -0.2271
  993EMI     H418855   2.632   2.643   3.881  0.5284  0.9413  0.8274
  993EMI     H518856   2.495   2.455   3.764  0.9657  2.0908 -2.4755
  993EMI    C1'18857   2.640   2.624   4.160  0.5517  0.0135  0.2968
  993EMI    H1'18858   2.697   2.706   4.120 -1.4518 -1.1500  0.9049
  993EMI    H1'18859   2.579   2.650   4.239 -1.0293 -1.5376 -2.0691
  993EMI    H1'18860   2.717   2.554   4.196  0.1383 -0.3367 -0.1907
  993EMI    C1"18861   2.317   2.302   3.934  0.4908  0.2494 -0.7988
  993EMI    H1"18862   2.262   2.328   3.840  2.5634 -2.2190  1.0518
  993EMI    H1"18863   2.251   2.268   4.012  0.5460  0.7426  3.2511
  993EMI    C2"18864   2.405   2.181   3.907  0.2015 -0.8176 -0.5074
  993EMI    H2"18865   2.329   2.099   3.904 -0.0316 -1.7429 -1.6895
  993EMI    H2"18866   2.448   2.196   3.811 -0.7638 -0.1106  1.2722
  993EMI    H2"18867   2.477   2.161   3.987 -0.4672  0.5846  1.2019
  994EMI     N118868   4.366   6.291   5.069 -0.2344 -0.6821 -0.6448
  994EMI     C218869   4.339   6.278   4.938  0.5907  0.3498 -0.0845
  994EMI     N318870   4.431   6.203   4.874  0.0932  0.4787 -0.0724
  994EMI     C418871   4.526   6.174   4.973  0.0460  0.2638 -0.4440
  994EMI     C518872   4.485   6.231   5.090  0.2673 -0.6077 -0.9531
  994EMI     H218873   4.258   6.328   4.882  0.6576 -0.1594 -0.1404
  994EMI     H418874   4.615   6.115   4.967 -0.7062  1.4006  2.0220
  994EMI     H518875   4.536   6.237   5.185  0.5578  0.5394 -0.3333
  994EMI    C1'18876   4.447   6.178   4.728 -0.2729  0.9086 -0.1670
  994EMI    H1'18877   4.388   6.255   4.682  0.7572  1.0426  0.7771
  994EMI    H1'18878   4.552   6.173   4.705 -0.8167 -2.5745 -1.2686
  994EMI    H1'18879   4.415   6.082   4.696  0.3419  1.1977  0.6338
  994EMI    C1"18880   4.302   6.361   5.187  0.6360 -0.3233  0.8648
  994EMI    H1"18881   4.212   6.409   5.154 -0.3342 -0.0048 -1.0977
  994EMI    H1"18882   4.372   6.440   5.209  0.2816 -0.5072  1.4418
  994EMI    C2"18883   4.288   6.280   5.317 -0.1333  0.3733  0.5481
  994EMI    H2"18884   4.248   6.357   5.390  0.1595  1.2738 -0.6058
  994EMI    H2"18885   4.206   6.209   5.286 -0.6913 -0.0428 -0.6424
  994EMI    H2"18886   4.379   6.235   5.351 -0.8513  3.3024 -0.0228
  995EMI     N118887   2.118   2.122   1.014  0.1296 -0.3706  0.1913
  995EMI     C218888   2.122   1.999   1.044  0.1937 -0.2658  0.4958
  995EMI     N318889   2.192   1.982   1.160 -0.0024 -0.5767  0.7243
  995EMI     C418890   2.227   2.108   1.202 -0.2622  0.3743 -0.4627
  995EMI     C518891   2.185   2.193   1.114 -0.5136  0.1301 -0.6184
  995EMI     H218892   2.084   1.921   0.985  1.0674 -0.6125  1.3985
  995EMI     H418893   2.274   2.121   1.300 -1.7689 -1.6785  1.9622
  995EMI     H518894   2.199   2.300   1.122  0.9697 -0.6663 -0.1204
  995EMI    C1'18895   2.221   1.851   1.218  0.6086  0.2692  0.3912
  995EMI    H1'18896   2.119   1.813   1.249  0.9872 -0.4674 -0.5632
  995EMI    H1'18897   2.270   1.788   1.143 -1.9062 -0.4462 -0.6333
  995EMI    H1'18898   2.282   1.869   1.306 -0.9400 -2.7522  1.6535
  995EMI    C1"18899   2.072   2.181   0.881 -0.1703 -0.5392  0.9955
  995EMI    H1"18900   2.133   2.134   0.798  0.1728  0.9135 -2.5954
  995EMI    H1"18901   2.091   2.287   0.863 -0.2026 -1.3438  0.3200
  995EMI    C2"18902   1.921   2.156   0.854 -0.4222 -0.1175 -0.3344
  995EMI    H2"18903   1.862   2.210   0.935 -1.0068  0.1010  0.5922
  995EMI    H2"18904   1.898   2.180   0.749 -0.3858  2.1707 -1.0005
  995EMI    H2"18905   1.921   2.050   0.874  0.1801  0.9101 -1.5712
  996EMI     N118906   1.453   1.723   1.466  0.2724 -0.1117  0.8290
  996EMI     C218907   1.451   1.696   1.336 -0.1598  0.0188  0.4639
  996EMI     N318908   1.355   1.763   1.273 -0.5591  0.5456  0.2023
  996EMI     C418909   1.287   1.831   1.367  0.0003  0.3070  0.6388
  996EMI     C518910   1.347   1.809   1.487 -0.2613 -1.0152 -0.1691
  996EMI     H218911   1.512   1.616   1.281 -1.2766 -2.4602  0.1601
  996EMI     H418912   1.203   1.899   1.355 -1.2374  2.0563  2.2090
  996EMI     H518913   1.325   1.850   1.589 -4.0114  0.8482 -1.2805
  996EMI    C1'18914   1.315   1.769   1.134  0.3084  0.6872  0.3567
  996EMI    H1'18915   1.388   1.699   1.079  2.7535  1.3408  0.2367
  996EMI    H1'18916   1.213   1.736   1.112 -0.4082  0.6848  0.6826
  996EMI    H1'18917   1.338   1.866   1.092  0.6292 -1.5929  2.6799
  996EMI    C1"18918   1.543   1.673   1.568  0.2399  0.2997  0.1550
  996EMI    H1"18919   1.493   1.690   1.663  0.0251  0.4776  0.4821
  996EMI    H1"18920   1.641   1.715   1.563  0.1597 -2.3067 -1.9828
  996EMI    C2"18921   1.567   1.527   1.550 -0.0378 -0.3463  0.1274
  996EMI    H2"18922   1.624   1.483   1.629 -0.2392 -1.7151 -0.3193
  996EMI    H2"18923   1.474   1.470   1.548  1.6967  0.2747  1.0106
  996EMI    H2"18924   1.607   1.498   1.450 -3.4107 -3.8289  1.0655
  997EMI     N118925   0.979   2.769   4.598  0.8916  0.8271 -1.1843
  997EMI     C218926   0.850   2.738   4.628 -0.3161  0.6114  0.2641
  997EMI     N318927   0.764   2.815   4.560 -0.9810  0.1419 -0.1153
  997EMI     C418928   0.838   2.912   4.499 -0.3570 -0.7489 -0.1007
  997EMI     C518929   0.969   2.886   4.527  0.7320  0.2431  0.4918
  997EMI     H218930   0.823   2.650   4.692  0.0016  0.4011  1.3283
  997EMI     H418931   0.808   2.986   4.429 -3.3431 -2.3403  1.2410
  997EMI     H518932   1.052   2.938   4.487  0.3586 -0.8754 -0.9703
  997EMI    C1'18933   0.617   2.806   4.576  0.2657  0.0283  0.3892
  997EMI    H1'18934   0.583   2.753   4.497  0.1628  0.8322  0.1451
  997EMI    H1'18935   0.591   2.745   4.667 -1.5137 -0.4165  1.7174
  997EMI    H1'18936   0.580   2.908   4.580 -1.7698 -2.6265  0.3668
  997EMI    C1"18937   1.110   2.718   4.654  0.6122  0.2610 -0.3974
  997EMI    H1"18938   1.187   2.750   4.594 -0.8785  2.3869  0.6175
  997EMI    H1"18939   1.105   2.616   4.656 -0.1436  0.2865  1.1183
  997EMI    C2"18940   1.139   2.772   4.791 -0.1478 -0.4509 -0.6635
  997EMI    H2"18941   1.058   2.766   4.860  1.9251  0.6124  0.4268
  997EMI    H2"18942   1.224   2.726   4.837 -0.1752  1.3323  3.0579
  997EMI    H2"18943   1.179   2.875   4.784  0.0397 -0.8431  3.1492
  998EMI     N118944   5.856   6.100   0.883  0.6470 -0.0890 -0.3530
  998EMI     C218945   5.859   6.211   0.954 -1.0607  0.2536  0.2443
  998EMI     N318946   5.761   6.291   0.917  0.1761  0.2678 -0.2295
  998EMI     C418947   5.685   6.227   0.822 -0.1146 -0.3012  0.0510
  998EMI     C518948   5.748   6.105   0.802 -0.3030 -0.0039  0.1415
  998EMI     H218949   5.933   6.229   1.034 -0.5591  0.4938 -0.0796
  998EMI     H418950   5.600   6.270   0.777 -0.2167  2.3260 -0.2139
  998EMI     H518951   5.728   6.022   0.732  1.4870 -2.7606 -2.4021
  998EMI    C1'18952   5.743   6.433   0.952  0.1667 -0.0643 -0.2519
  998EMI    H1'18953   5.833   6.487   0.917  0.4361  0.0769  1.4074
  998EMI    H1'18954   5.647   6.481   0.919 -1.7090  2.7089  0.8576
  998EMI    H1'18955   5.747   6.434   1.064  1.0423  1.1948  1.9731
  998EMI    C1"18956   5.959   5.992   0.877  0.0315  0.6254 -0.1653
  998EMI    H1"18957   5.924   5.899   0.923  2.8467 -0.5774 -1.0622
  998EMI    H1"18958   6.053   6.025   0.921 -1.8564 -0.7663 -1.6299
  998EMI    C2"18959   5.993   5.945   0.736 -0.2274  0.0681  0.0274
  998EMI    H2"18960   6.015   6.038   0.676  1.1883  2.3021 -1.1848
  998EMI    H2"18961   6.082   5.876   0.736  0.7068  3.4121 -0.8924
  998EMI    H2"18962   5.917   5.893   0.686  2.1667  0.1681 -0.4753
  999EMI     N118963   5.976   3.807   0.374 -0.0872  0.2892 -0.4602
  999EMI     C218964   6.036   3.928   0.384 -0.1730 -0.0670 -0.6286
  999EMI     N318965   6.076   3.962   0.261  0.6722  0.1755  0.0940
  999EMI     C418966   6.027   3.871   0.172  0.1622 -0.7299 -0.6045
  999EMI     C518967   5.973   3.769   0.240 -0.2446  0.0716 -0.1806
  999EMI     H218968   6.073   3.972   0.475  2.4693  0.8240  0.0360
  999EMI     H418969   6.037   3.877   0.065  1.2926 -0.0080  0.8030
  999EMI     H518970   5.918   3.688   0.200 -1.6493  0.5637 -2.2954
  999EMI    C1'18971   6.178   4.063   0.221  0.0507 -0.5480  0.1948
  999EMI    H1'18972   6.144   4.172   0.230 -2.0445  4.6836 -2.8853
  999EMI    H1'18973   6.264   4.044   0.277  0.8047  0.2346 -1.3460
  999EMI    H1'18974   6.205   4.051   0.114  0.8103  0.3495  0.7889
  999EMI    C1"18975   5.933   3.710   0.482  0.9163 -0.0582 -0.0920
  999EMI    H1"18976   5.850   3.642   0.450 -2.5840  1.0715 -3.2446
  999EMI    H1"18977   5.879   3.766   0.564 -1.1051  4.3478  0.9288
  999EMI    C2"18978   6.042   3.622   0.542  0.0336  0.3941  0.6774
  999EMI    H2"18979   6.095   3.560   0.465  0.5303 -0.2355  0.6300
  999EMI    H2"18980   6.120   3.688   0.579  0.7350 -1.5836  2.7091
  999EMI    H2"18981   6.005   3.572   0.629  0.2642 -1.0934 -1.2762
 1000EMI     N118982   0.570   5.888   0.982 -1.2918  0.0785  0.0276
 1000EMI     C218983   0.647   5.834   1.075  0.1343 -0.4951 -0.3305
 1000EMI     N318984   0.766   5.901   1.083 -0.0306 -0.1612 -0.0648
 1000EMI     C418985   0.756   6.013   1.005 -0.2345 -0.0681  0.4633
 1000EMI     C518986   0.643   5.998   0.932 -0.3980  0.0648  0.3198
 1000EMI     H218987   0.621   5.747   1.140  0.6200 -1.8696  4.1767
 1000EMI     H418988   0.831   6.092   0.992  0.6446 -1.1322 -2.8749
 1000EMI     H518989   0.601   6.065   0.853 -0.0149  0.5344 -0.7519
 1000EMI    C1'18990   0.880   5.871   1.167 -0.2242 -0.1013  0.7686
 1000EMI    H1'18991   0.964   5.924   1.116  1.6403 -2.0985 -1.4105
 1000EMI    H1'18992   0.860   5.897   1.273 -1.8066  0.4067  0.1909
 1000EMI    H1'18993   0.898   5.766   1.152  2.6930  1.4546 -0.9198
 1000EMI    C1"18994   0.433   5.844   0.951  0.4540 -0.2411 -0.1604
 1000EMI    H1"18995   0.363   5.931   0.961 -3.4541 -0.0078  0.9262
 1000EMI    H1"18996   0.407   5.773   1.030  0.4752 -1.2396 -0.2345
 1000EMI    C2"18997   0.410   5.784   0.809 -0.5508 -0.0319 -0.2794
 1000EMI    H2"18998   0.444   5.848   0.727  1.7178  1.9806 -1.0581
 1000EMI    H2"18999   0.478   5.703   0.790 -0.4970  0.1356  0.8300
 1000EMI    H2"19000   0.308   5.748   0.790 -1.4870 -1.4486 -0.7889
 1001ESO     O119001   0.599   2.467   1.655  0.7101  0.3919 -0.7045
 1001ESO     O119002   0.501   2.591   1.835  0.4529 -0.4963 -0.3184
 1001ESO     O119003   0.647   2.422   1.893  0.3318 -0.4572  0.1487
 1001ESO      S19004   0.616   2.515   1.790  0.0070  0.0872 -0.3013
 1001ESO     O219005   0.733   2.624   1.786 -0.0199  0.0155 -0.1559
 1001ESO    C1a19006   0.863   2.583   1.731  0.5217 -0.7373 -0.3579
 1001ESO    H1a19007   0.907   2.512   1.794 -0.0303 -1.1194  0.8641
 1001ESO    H1a19008   0.850   2.548   1.631  1.9677  1.1578 -0.3631
 1001ESO    C2a19009   0.940   2.710   1.747 -0.3278 -0.1463 -0.3622
 1001ESO    H2a19010   0.973   2.731   1.848 -0.9176 -0.1548  0.2486
 1001ESO    H2a19011   0.876   2.795   1.723  2.8487 -1.4734 -1.2054
 1001ESO    H2a19012   1.030   2.716   1.687  1.7624 -0.9757  0.9628
 1002ESO     O119013   3.253   0.004   6.472  0.0339  0.1125  0.1098
 1002ESO     O119014   3.064   0.094   6.364  1.0927  0.6764  0.0995
 1002ESO     O119015   3.265   0.069   6.242 -0.2592 -0.4405 -0.1636
 1002ESO      S19016   3.184   0.018   6.348 -0.0254  0.4647 -0.3183
 1002ESO     O219017   3.157  -0.137   6.307  0.4538 -0.3241 -0.1475
 1002ESO    C1a19018   3.045  -0.206   6.373  0.9340 -0.1791  0.6702
 1002ESO    H1a19019   3.078  -0.311   6.399 -0.4742 -0.7404 -0.8551
 1002ESO    H1a19020   3.027  -0.158   6.470  1.1505  1.2315  3.1973
 1002ESO    C2a19021   2.918  -0.201   6.282 -0.0538 -0.5384  0.0719
 1002ESO    H2a19022   2.911  -0.267   6.204 -1.2816 -0.0554 -0.4214
 1002ESO    H2a19023   2.915  -0.103   6.238 -0.4720 -0.4198  0.0601
 1002ESO    H2a19024   2.823  -0.216   6.336 -1.6146  0.7945  1.9380
 1003ESO     O119025   5.664   4.689   0.616  0.1513 -0.0699 -0.0286
 1003ESO     O119026   5.846   4.820   0.525  0.3240 -0.5320 -0.3185
 1003ESO     O119027   5.853   4.756   0.759  0.3244 -0.5403  1.0844
 1003ESO      S19028   5.805   4.724   0.620 -0.1317  0.0924  0.0337
 1003ESO     O219029   5.889   4.589   0.585  0.3240 -0.2575  0.1405
 1003ESO    C1a19030   5.866   4.546   0.450 -0.2712 -0.5105 -0.5797
 1003ESO    H1a19031   5.765   4.579   0.414  0.9001  0.8956 -1.8498
 1003ESO    H1a19032   5.944   4.581   0.384 -0.4024 -1.0058  3.3858
 1003ESO    C2a19033   5.892   4.402   0.454  0.4924  0.3103 -0.6425
 1003ESO    H2a19034   5.900   4.364   0.353  1.0776 -2.3436  1.2066
 1003ESO    H2a19035   5.814   4.341   0.502 -1.0833  1.1763  0.0531
 1003ESO    H2a19036   5.979   4.374   0.511  0.1398  1.1019  1.8631
 1004ESO     O119037   2.602   2.089   1.090  0.1314  0.0120  0.2565
 1004ESO     O119038   2.541   1.990   1.297 -0.0020  0.3749 -0.2643
 1004ESO     O119039   2.527   1.866   1.092 -0.4434 -0.1103 -0.0788
 1004ESO      S19040   2.592   1.971   1.163 -0.3755 -0.3324  0.1091
 1004ESO     O219041   2.746   1.933   1.180  1.3528  0.0378 -0.3002
 1004ESO    C1a19042   2.775   1.820   1.271 -0.3791  0.1828  0.9008
 1004ESO    H1a19043   2.872   1.825   1.314  1.2438 -0.6415 -1.2600
 1004ESO    H1a19044   2.698   1.804   1.344  1.0741 -0.6489 -0.6698
 1004ESO    C2a19045   2.787   1.696   1.189  0.1974  0.8724  0.5256
 1004ESO    H2a19046   2.866   1.703   1.112  0.9034  2.3433  0.9771
 1004ESO    H2a19047   2.694   1.661   1.137 -3.5881 -1.5682 -0.9879
 1004ESO    H2a19048   2.822   1.617   1.256  0.2804  0.0879 -1.0933
 1005ESO     O119049   5.840   5.859   6.386 -0.5834 -0.1484 -0.3357
 1005ESO     O119050   5.833   6.088   6.454 -0.5431  0.1803  0.0215
 1005ESO     O119051   5.663   5.930   6.528 -0.2744 -0.0861  0.0277
 1005ESO      S19052   5.793   5.953   6.480  0.0701  0.2405 -0.1194
 1005ESO     O219053   5.877   5.910   6.608 -0.0278 -0.0613 -0.1425
 1005ESO    C1a19054   6.012   5.879   6.605  0.5227  0.5220 -0.0637
 1005ESO    H1a19055   6.023   5.788   6.544 -1.6380 -1.7757  0.5986
 1005ESO    H1a19056   6.063   5.970   6.568  0.2460  1.4106  1.6209
 1005ESO    C2a19057   6.052   5.835   6.749  1.1256 -0.1395  0.1252
 1005ESO    H2a19058   6.043   5.731   6.767 -0.3668  0.4006 -1.2786
 1005ESO    H2a19059   6.008   5.906   6.828 -2.1866  2.3893  0.1043
 1005ESO    H2a19060   6.160   5.842   6.754  0.4746  0.7684 -2.0135
 1006ESO     O119061   5.308   5.849   2.588  0.7687  0.0047 -0.6459
 1006ESO     O119062   5.279   5.649   2.459  0.0245 -0.1191  0.1080
 1006ESO     O119063   5.235   5.858   2.364  0.2003 -0.0124  0.3680
 1006ESO      S19064   5.316   5.787   2.458  0.3530  0.4272 -0.0349
 1006ESO     O219065   5.463   5.800   2.405  0.7742  0.0972  0.1468
 1006ESO    C1a19066   5.560   5.747   2.497 -0.5568  0.1136  0.7961
 1006ESO    H1a19067   5.569   5.812   2.583  0.1891  0.4250 -2.0388
 1006ESO    H1a19068   5.521   5.648   2.537  0.6602 -0.0764 -3.1044
 1006ESO    C2a19069   5.693   5.738   2.418  0.2976 -0.2913  0.2528
 1006ESO    H2a19070   5.663   5.692   2.326 -0.5050  2.3267  0.5506
 1006ESO    H2a19071   5.755   5.671   2.478 -0.0816 -1.0563  0.6745
 1006ESO    H2a19072   5.731   5.836   2.397  0.7544  0.2889  1.3967
 1007ESO     O119073   4.629   4.744   0.726 -0.0324 -0.0498  0.3969
 1007ESO     O119074   4.517   4.936   0.828 -0.1589  0.2744 -0.2593
 1007ESO     O119075   4.757   4.922   0.811  0.0521  0.3388 -0.6461
 1007ESO      S19076   4.631   4.886   0.756  0.1078  0.5004 -0.4956
 1007ESO     O219077   4.623   4.959   0.625  0.6880 -0.2521 -0.2118
 1007ESO    C1a19078   4.512   4.946   0.540  0.0691  0.0700  0.0181
 1007ESO    H1a19079   4.496   4.842   0.499 -1.8618 -0.0524 -0.3665
 1007ESO    H1a19080   4.419   4.968   0.595  2.3765  0.5088 -0.3655
 1007ESO    C2a19081   4.546   5.034   0.417  0.0027 -0.3282  0.0537
 1007ESO    H2a19082   4.647   5.009   0.391  1.2190  2.5750  0.7610
 1007ESO    H2a19083   4.534   5.148   0.437  0.8018 -0.7741 -2.8706
 1007ESO    H2a19084   4.481   5.015   0.335  0.1337 -0.5280  0.0717
 1008ESO     O119085   0.185   2.411   5.571  0.6922  0.9921  1.0078
 1008ESO     O119086   0.323   2.218   5.611  0.2096  0.9950 -0.0219
 1008ESO     O119087   0.395   2.438   5.687 -0.0218  0.3803  0.6184
 1008ESO      S19088   0.283   2.346   5.662 -0.1086  0.2564  0.0329
 1008ESO     O219089   0.227   2.336   5.808  0.2083 -0.0614 -0.5715
 1008ESO    C1a19090   0.098   2.370   5.852  0.0360 -0.1150  0.1537
 1008ESO    H1a19091   0.028   2.377   5.766  0.4877  0.2734 -0.7804
 1008ESO    H1a19092   0.060   2.285   5.911 -1.4059 -2.3608  0.4607
 1008ESO    C2a19093   0.085   2.483   5.956  0.1614 -0.5685  0.5837
 1008ESO    H2a19094   0.149   2.467   6.041 -0.7796  0.4410 -1.8757
 1008ESO    H2a19095  -0.018   2.513   5.984  1.4356 -0.0692  3.1334
 1008ESO    H2a19096   0.126   2.580   5.913 -0.1095 -1.6189 -1.0667
 1009ESO     O119097   1.267   0.561   4.670  0.5931  0.8843  0.2569
 1009ESO     O119098   1.078   0.678   4.576 -0.1748  0.0685 -0.2448
 1009ESO     O119099   1.219   0.786   4.729 -0.2261 -0.5595 -0.0108
 1009ESO      S19100   1.212   0.687   4.628  0.0126  0.0779 -0.4098
 1009ESO     O219101   1.287   0.731   4.501  0.3126 -0.4206 -0.2953
 1009ESO    C1a19102   1.414   0.809   4.504  0.1876  0.1710  0.1195
 1009ESO    H1a19103   1.467   0.803   4.602 -1.0543  0.1485 -1.0918
 1009ESO    H1a19104   1.482   0.763   4.434 -0.5570  3.5329  0.1409
 1009ESO    C2a19105   1.378   0.955   4.469 -0.2092 -0.4079 -0.6517
 1009ESO    H2a19106   1.337   0.968   4.366  0.8681 -1.8093 -1.4305
 1009ESO    H2a19107   1.470   1.012   4.467  1.1053 -0.0670  0.2288
 1009ESO    H2a19108   1.315   1.002   4.537  0.7514 -0.4734 -0.2613
 1010ESO     O119109   4.844   6.655   6.304  0.5023  0.7116 -0.2355
 1010ESO     O119110   4.625   6.569   6.336 -0.0049  0.0518  0.9109
 1010ESO     O119111   4.787   6.525   6.497 -0.2667  0.6639 -0.3040
 1010ESO      S19112   4.741   6.617   6.398 -0.0978 -0.1664 -0.2852
 1010ESO     O219113   4.702   6.747   6.478 -0.2180  0.3113  0.3893
 1010ESO    C1a19114   4.796   6.831   6.545 -0.4756  0.6254 -0.2004
 1010ESO    H1a19115   4.845   6.772   6.629 -0.2421 -0.9328 -0.7388
 1010ESO    H1a19116   4.876   6.861   6.481  1.3042  0.5506  1.3677
 1010ESO    C2a19117   4.722   6.944   6.603  0.7299 -0.1287  0.2274
 1010ESO    H2a19118   4.655   6.995   6.533  1.7404 -0.4365 -0.1813
 1010ESO    H2a19119   4.789   7.021   6.651  0.2110 -0.3259  0.1721
 1010ESO    H2a19120   4.666   6.907   6.688  1.2682 -0.1317 -0.7672
 1011ESO     O119121   1.326   4.661   0.337  0.3204  0.5892  0.3267
 1011ESO     O119122   1.233   4.654   0.552  0.0894  0.3211  0.0674
 1011ESO     O119123   1.456   4.748   0.530 -0.0184  0.4086  0.2376
 1011ESO      S19124   1.326   4.726   0.468  0.3156  0.6790 -0.4411
 1011ESO     O219125   1.257   4.864   0.437  0.5742  0.1815  0.6428
 1011ESO    C1a19126   1.124   4.859   0.386  0.5700  0.4072 -0.0481
 1011ESO    H1a19127   1.125   4.824   0.285  2.3872  0.6398  0.3047
 1011ESO    H1a19128   1.067   4.791   0.449 -0.6935  1.1993  0.5574
 1011ESO    C2a19129   1.061   4.997   0.405 -0.7919 -0.1056 -0.9430
 1011ESO    H2a19130   1.116   5.084   0.364  0.5891  0.9430 -0.5197
 1011ESO    H2a19131   1.035   4.999   0.511 -0.8610 -0.3089  0.6239
 1011ESO    H2a19132   0.970   5.003   0.352  1.2695 -0.7482  0.3504
 1012ESO     O119133   1.881   1.386   4.094  0.5543  0.5400  0.4375
 1012ESO     O119134   2.035   1.313   3.924 -0.0536 -0.4225  0.6056
 1012ESO     O119135   1.800   1.297   3.886  0.2207 -0.2851 -0.1781
 1012ESO      S19136   1.903   1.364   3.955  0.0196 -0.1722 -0.3217
 1012ESO     O219137   1.905   1.509   3.893 -0.4706 -0.1241 -0.2193
 1012ESO    C1a19138   1.895   1.532   3.752 -1.0381  0.0670  0.3686
 1012ESO    H1a19139   1.985   1.491   3.706  0.8276  0.9656 -2.2354
 1012ESO    H1a19140   1.819   1.464   3.715  3.4467 -2.3303 -0.3703
 1012ESO    C2a19141   1.859   1.676   3.731  0.0679  0.2779 -0.5525
 1012ESO    H2a19142   1.832   1.738   3.820  0.6542 -1.1143 -0.3687
 1012ESO    H2a19143   1.783   1.684   3.650  0.3411  2.0081  2.3309
 1012ESO    H2a19144   1.946   1.729   3.692  0.4382 -1.3982 -1.3640
 1013ESO     O119145   1.939   0.068   3.647  0.3181 -0.0878 -0.4532
 1013ESO     O119146   1.704   0.076   3.631 -0.1198  0.3180 -0.2894
 1013ESO     O119147   1.834   0.177   3.463 -0.3327 -0.6732  0.1029
 1013ESO      S19148   1.825   0.075   3.557  0.2885 -0.0875 -0.1860
 1013ESO     O219149   1.822  -0.062   3.476  0.0468  0.3037  0.1646
 1013ESO    C1a19150   1.723  -0.089   3.371  0.3200 -0.6654  0.1165
 1013ESO    H1a19151   1.639  -0.016   3.376  0.5343 -0.0390  0.1026
 1013ESO    H1a19152   1.770  -0.087   3.274 -0.4177 -0.3717 -0.1220
 1013ESO    C2a19153   1.679  -0.229   3.382  0.1347  0.4175 -0.6280
 1013ESO    H2a19154   1.574  -0.238   3.426 -0.0507 -1.2559  0.6266
 1013ESO    H2a19155   1.744  -0.284   3.454  0.6646  0.5993  2.3849
 1013ESO    H2a19156   1.673  -0.276   3.286  0.3767 -0.5655  1.0826
 1014ESO     O119157   0.250   1.085   0.501 -0.0476  0.1182  0.1011
 1014ESO     O119158   0.478   1.030   0.534 -0.7993  0.2865 -0.0858
 1014ESO     O119159   0.306   0.888   0.637 -0.2030 -0.4514 -0.7815
 1014ESO      S19160   0.342   0.980   0.523 -0.2859 -0.1580 -0.0274
 1014ESO     O219161   0.346   0.885   0.393  0.4245  0.1764  0.2281
 1014ESO    C1a19162   0.351   0.960   0.264  0.6445  0.4417 -0.3566
 1014ESO    H1a19163   0.251   1.004   0.247 -1.0510 -1.6926  2.4226
 1014ESO    H1a19164   0.414   1.048   0.262 -0.1603 -0.2852  0.7619
 1014ESO    C2a19165   0.407   0.869   0.163 -0.5323 -0.0254 -0.4546
 1014ESO    H2a19166   0.369   0.918   0.068 -0.6633  0.1673  1.5744
 1014ESO    H2a19167   0.359   0.768   0.174 -1.0477  1.7445  4.5982
 1014ESO    H2a19168   0.518   0.872   0.158  3.8889  1.0869  0.2599
 1015ESO     O119169   2.869   3.706   1.545 -0.1958  0.2955 -0.4318
 1015ESO     O119170   3.106   3.668   1.539 -0.0118 -0.2253 -0.1493
 1015ESO     O119171   2.987   3.737   1.739  0.3614 -0.1471 -0.2434
 1015ESO      S19172   2.984   3.661   1.616 -0.3598  0.6128  0.1035
 1015ESO     O219173   2.960   3.510   1.651 -0.0033 -0.7576  0.2682
 1015ESO    C1a19174   3.056   3.452   1.736  0.9360 -0.0405  0.0763
 1015ESO    H1a19175   3.116   3.528   1.780 -1.5069 -1.6678  0.4841
 1015ESO    H1a19176   2.991   3.417   1.817 -0.9930  0.8721 -2.7296
 1015ESO    C2a19177   3.136   3.349   1.656 -0.5648 -0.6338  0.1153
 1015ESO    H2a19178   3.086   3.258   1.630  3.0048  0.0022 -1.0218
 1015ESO    H2a19179   3.214   3.332   1.723 -1.8277  0.9055 -0.0056
 1015ESO    H2a19180   3.178   3.383   1.564  1.5017 -0.1878  2.9616
 1016ESO     O119181   5.472   6.527   3.130  0.1233  0.5455 -0.2080
 1016ESO     O119182   5.392   6.337   3.259  0.4092  0.4308  0.5307
 1016ESO     O119183   5.253   6.424   3.085 -0.2096  0.4793 -0.3280
 1016ESO      S19184   5.390   6.406   3.133  0.0708 -0.0324 -0.2723
 1016ESO     O219185   5.463   6.304   3.032 -0.2905  0.0821  0.1544
 1016ESO    C1a19186   5.474   6.354   2.898  0.0575 -0.3515 -0.5445
 1016ESO    H1a19187   5.377   6.333   2.852 -1.5949  1.1602  0.8850
 1016ESO    H1a19188   5.502   6.461   2.887 -3.5395 -1.7002 -2.3330
 1016ESO    C2a19189   5.578   6.261   2.835  0.0165  0.3300  0.7921
 1016ESO    H2a19190   5.633   6.312   2.754 -0.9976  0.4972 -1.9339
 1016ESO    H2a19191   5.523   6.185   2.780 -1.0933  0.9144  0.3042
 1016ESO    H2a19192   5.635   6.208   2.908  2.3893 -1.5123  0.3594
 1017ESO     O119193   0.495   5.391   2.206  0.1673  0.4387  0.4000
 1017ESO     O119194   0.413   5.563   2.057  0.4956  0.1768 -0.5085
 1017ESO     O119195   0.488   5.616   2.283  0.0292 -0.1443 -0.6436
 1017ESO      S19196   0.504   5.527   2.168  0.2107 -0.3246  0.4625
 1017ESO     O219197   0.652   5.539   2.123 -0.4365  0.2109 -0.0477
 1017ESO    C1a19198   0.698   5.671   2.079 -0.0357 -0.6424 -0.2760
 1017ESO    H1a19199   0.708   5.672   1.970  1.1622 -0.1223 -0.9193
 1017ESO    H1a19200   0.637   5.747   2.115  2.7499 -4.3980 -2.3784
 1017ESO    C2a19201   0.834   5.696   2.148 -0.5654 -0.3842 -0.0386
 1017ESO    H2a19202   0.910   5.632   2.107  1.6148  1.9473 -1.0692
 1017ESO    H2a19203   0.819   5.659   2.248  0.4976 -0.5364 -0.3250
 1017ESO    H2a19204   0.866   5.802   2.141 -0.7564 -1.7065 -0.3560
 1018ESO     O119205   3.816   0.308   5.108 -0.1961 -0.1625  0.1827
 1018ESO     O119206   3.918   0.315   5.326 -0.1831  0.6160 -0.3062
 1018ESO     O119207   4.048   0.296   5.130  0.4462  0.2356 -0.1542
 1018ESO      S19208   3.926   0.344   5.187 -0.0441  0.0984 -0.1687
 1018ESO     O219209   3.939   0.504   5.182  0.3638 -0.3455  0.0481
 1018ESO    C1a19210   3.946   0.559   5.049 -0.3860 -0.5341 -0.2463
 1018ESO    H1a19211   4.013   0.507   4.987 -2.3323 -0.6981  2.4760
 1018ESO    H1a19212   3.849   0.547   5.002 -2.2116  2.4888  0.5074
 1018ESO    C2a19213   3.972   0.712   5.054 -0.2080  0.3467  0.3672
 1018ESO    H2a19214   3.910   0.765   5.130  0.1850 -0.0094 -1.6422
 1018ESO    H2a19215   3.950   0.748   4.956  3.8022 -1.2573  0.1864
 1018ESO    H2a19216   4.080   0.717   5.078  1.2777  2.8073 -1.0524
 1019ESO     O119217   3.977   3.140   5.908  0.1797  0.5811 -0.0753
 1019ESO     O119218   4.153   3.278   5.839  0.1777  0.3216 -0.3734
 1019ESO     O119219   4.173   3.031   5.854 -0.0159 -0.7372 -0.2031
 1019ESO      S19220   4.092   3.145   5.824 -0.4788  0.0185  0.2200
 1019ESO     O219221   4.047   3.128   5.676  0.0474  0.1312 -0.3532
 1019ESO    C1a19222   3.967   3.232   5.620  0.2087 -0.3776  0.3294
 1019ESO    H1a19223   3.880   3.247   5.682  1.7184  3.5639 -0.2478
 1019ESO    H1a19224   4.020   3.333   5.610 -0.2449  1.9310 -3.9386
 1019ESO    C2a19225   3.933   3.190   5.476  0.0457 -0.0879  0.3313
 1019ESO    H2a19226   4.010   3.212   5.410 -0.8849  0.0994 -0.4014
 1019ESO    H2a19227   3.842   3.248   5.444  1.7323  1.7592  0.8529
 1019ESO    H2a19228   3.910   3.083   5.467  0.8071  0.5772  0.1478
 1020ESO     O119229   3.152   0.829   5.137 -0.4264  0.0426 -0.1483
 1020ESO     O119230   3.283   1.028   5.108 -0.1733  0.0467  0.2040
 1020ESO     O119231   3.316   0.842   4.963  0.6616  0.4003  0.3491
 1020ESO      S19232   3.225   0.914   5.044 -0.1876  0.0074 -0.2775
 1020ESO     O219233   3.120   0.975   4.956  0.1109  0.1088  0.3055
 1020ESO    C1a19234   3.063   0.893   4.849 -0.6206  0.2886 -0.2498
 1020ESO    H1a19235   3.148   0.861   4.790 -0.9199 -2.4038 -3.1412
 1020ESO    H1a19236   3.012   0.807   4.881 -0.8186 -0.2106 -0.1564
 1020ESO    C2a19237   2.970   0.970   4.759  0.2528 -0.7562  0.0008
 1020ESO    H2a19238   2.939   0.909   4.669 -0.0621  0.7987  0.8395
 1020ESO    H2a19239   3.024   1.052   4.719  0.5567  0.2660 -1.2667
 1020ESO    H2a19240   2.880   1.001   4.810  0.4625  1.6142  1.1810
 1021ESO     O119241   6.686   1.185   1.448 -0.5186  0.2261 -0.1119
 1021ESO     O119242   6.862   1.159   1.297  0.1996  0.5810 -0.3891
 1021ESO     O119243   6.658   1.047   1.260 -0.3971  0.3945 -0.0510
 1021ESO      S19244   6.722   1.164   1.313  0.1393 -0.4460 -0.1310
 1021ESO     O219245   6.668   1.292   1.234 -0.7943  0.4219 -0.5239
 1021ESO    C1a19246   6.526   1.305   1.216  0.2552  0.1417 -0.3666
 1021ESO    H1a19247   6.466   1.223   1.168  1.9931  0.6755 -0.4130
 1021ESO    H1a19248   6.493   1.305   1.324  0.6055  2.3515 -1.6847
 1021ESO    C2a19249   6.519   1.433   1.139  0.4457  0.3054  0.3296
 1021ESO    H2a19250   6.418   1.480   1.145  1.2237  0.9627 -0.4084
 1021ESO    H2a19251   6.547   1.414   1.031 -1.7076 -2.6578 -3.5654
 1021ESO    H2a19252   6.588   1.506   1.174 -0.8968 -0.4593  0.0455
 1022ESO     O119253   2.790   5.611   3.937  0.1522  0.0886  0.2345
 1022ESO     O119254   2.928   5.456   3.839  0.4921  0.0787  0.3538
 1022ESO     O119255   2.690   5.422   3.839 -0.0182 -0.7347 -0.8529
 1022ESO      S19256   2.801   5.515   3.833  0.0706 -0.2782 -0.2724
 1022ESO     O219257   2.774   5.588   3.699  0.6355  0.7352 -0.0689
 1022ESO    C1a19258   2.829   5.718   3.669  1.1912  0.1473  0.3346
 1022ESO    H1a19259   2.770   5.789   3.726 -1.8108  0.1118  1.1491
 1022ESO    H1a19260   2.937   5.719   3.699  1.9848 -1.1225  0.5727
 1022ESO    C2a19261   2.810   5.733   3.518 -0.8339 -0.3405 -0.4022
 1022ESO    H2a19262   2.843   5.828   3.478  0.5459  1.7688  1.9954
 1022ESO    H2a19263   2.703   5.724   3.481  1.6943 -3.6047  3.2625
 1022ESO    H2a19264   2.883   5.661   3.467 -0.2386 -1.6066  0.7770
 1023ESO     O119265   1.704   5.781   2.718  0.6933  0.1279  0.4821
 1023ESO     O119266   1.938   5.767   2.767 -0.0033  0.0717  0.0415
 1023ESO     O119267   1.852   5.654   2.578  0.0430 -0.1629  0.1521
 1023ESO      S19268   1.835   5.767   2.665 -0.2036  0.0422 -0.1974
 1023ESO     O219269   1.857   5.899   2.584 -0.5464 -0.3350  0.2041
 1023ESO    C1a19270   1.995   5.924   2.531  0.5333 -0.0890  0.8291
 1023ESO    H1a19271   2.062   5.888   2.606 -0.0358 -0.5349 -1.4034
 1023ESO    H1a19272   2.009   5.862   2.446 -2.2260  2.0454 -1.7778
 1023ESO    C2a19273   2.016   6.068   2.486  0.2108  0.3735 -0.3017
 1023ESO    H2a19274   2.109   6.072   2.436  2.1340  0.3682 -2.6405
 1023ESO    H2a19275   2.018   6.138   2.566 -1.4357 -3.9246 -0.1676
 1023ESO    H2a19276   1.942   6.085   2.416 -0.7349 -2.9211  2.4558
 1024ESO     O119277   0.545   4.048   5.893  0.0635  0.5807  0.6569
 1024ESO     O119278   0.653   4.157   5.708 -0.2676 -0.1311  0.5172
 1024ESO     O119279   0.655   3.923   5.712 -0.3099 -0.6460  0.1949
 1024ESO      S19280   0.584   4.041   5.752 -0.1334  0.4706 -0.0491
 1024ESO     O219281   0.449   4.048   5.675  0.3211 -0.0327  0.0087
 1024ESO    C1a19282   0.359   3.933   5.705 -0.5596  0.4200  0.0978
 1024ESO    H1a19283   0.408   3.840   5.674 -0.5717 -1.2223 -0.5074
 1024ESO    H1a19284   0.336   3.926   5.813 -1.9188  0.2184  1.3643
 1024ESO    C2a19285   0.232   3.965   5.631 -0.3105  0.1083 -0.1869
 1024ESO    H2a19286   0.168   3.874   5.628 -1.7095  0.2522  1.9820
 1024ESO    H2a19287   0.252   3.990   5.527  1.5269 -2.2909  1.2112
 1024ESO    H2a19288   0.170   4.046   5.680  0.2032 -0.2464 -1.4296
 1025ESO     O119289   5.180   5.377   1.402  0.1070  0.0347  0.0178
 1025ESO     O119290   5.062   5.549   1.283  0.6350  0.1383 -0.2206
 1025ESO     O119291   5.118   5.575   1.506 -0.5750 -0.8528 -0.6400
 1025ESO      S19292   5.153   5.517   1.384 -0.3389  0.1396 -0.2468
 1025ESO     O219293   5.288   5.572   1.345 -0.0567  0.1093  0.4923
 1025ESO    C1a19294   5.296   5.696   1.271  0.5884  0.6146 -0.6841
 1025ESO    H1a19295   5.302   5.687   1.165 -3.4545  0.4125  3.7427
 1025ESO    H1a19296   5.210   5.760   1.289 -2.0275 -1.2149 -0.7592
 1025ESO    C2a19297   5.422   5.770   1.309 -0.4856  0.0950 -0.0966
 1025ESO    H2a19298   5.438   5.859   1.249 -1.0295 -0.6782  1.4407
 1025ESO    H2a19299   5.499   5.706   1.299 -2.1054 -1.2143 -0.5936
 1025ESO    H2a19300   5.418   5.797   1.416  1.7792  0.7083  0.7503
 1026ESO     O119301   0.508   4.875   5.435  0.3295 -0.3261 -0.2646
 1026ESO     O119302   0.603   4.687   5.321 -0.1912  0.0819 -0.3204
 1026ESO     O119303   0.695   4.907   5.303 -0.6001  0.0490 -0.1644
 1026ESO      S19304   0.628   4.813   5.390  0.2850 -0.5581  0.4020
 1026ESO     O219305   0.721   4.796   5.512 -0.3642 -0.0502  0.0238
 1026ESO    C1a19306   0.843   4.729   5.494 -0.5443  0.2631 -0.2929
 1026ESO    H1a19307   0.835   4.627   5.525 -0.6741 -2.3020  0.6197
 1026ESO    H1a19308   0.883   4.726   5.400  1.2263  0.7512  1.3075
 1026ESO    C2a19309   0.950   4.801   5.578 -0.4213  0.8258 -0.1228
 1026ESO    H2a19310   0.906   4.826   5.675 -1.5546 -0.9793  2.2134
 1026ESO    H2a19311   0.983   4.889   5.535 -2.9616 -0.9260  1.0678
 1026ESO    H2a19312   1.036   4.730   5.588  0.4271 -1.9363  1.8158
 1027ESO     O119313   6.194   1.122   3.725 -0.7962  0.5273 -0.8376
 1027ESO     O119314   6.223   1.061   3.951  0.6450  0.1657  0.0906
 1027ESO     O119315   6.077   0.932   3.817  0.3869 -0.4468 -0.4625
 1027ESO      S19316   6.195   1.013   3.819 -0.2921 -0.2392  0.2415
 1027ESO     O219317   6.317   0.919   3.776 -0.3274 -0.6502  0.0725
 1027ESO    C1a19318   6.455   0.978   3.757  0.2582  0.9961  0.3203
 1027ESO    H1a19319   6.457   1.030   3.662 -2.5823  2.0743 -0.8076
 1027ESO    H1a19320   6.468   1.053   3.842  3.1139  1.3312  2.6138
 1027ESO    C2a19321   6.555   0.869   3.787 -0.4692 -0.6285  0.3148
 1027ESO    H2a19322   6.519   0.803   3.852  0.8821  1.1553 -0.7380
 1027ESO    H2a19323   6.644   0.919   3.833  2.5432  0.5976  0.5460
 1027ESO    H2a19324   6.580   0.815   3.689  0.4913 -0.9484 -1.9405
 1028ESO     O119325   4.089   2.300   3.422  0.0996 -0.5169  1.0006
 1028ESO     O119326   4.303   2.414   3.430  0.0779  0.0896 -0.0694
 1028ESO     O119327   4.289   2.194   3.492 -0.4663  0.1239 -0.0935
 1028ESO      S19328   4.230   2.292   3.407  0.0451 -0.1983  0.1346
 1028ESO     O219329   4.249   2.248   3.262  0.0879 -0.6620  0.1568
 1028ESO    C1a19330   4.384   2.195   3.220 -0.7058 -0.9528 -0.2532
 1028ESO    H1a19331   4.475   2.260   3.253  0.4180  2.2710 -1.3006
 1028ESO    H1a19332   4.394   2.091   3.257  4.3021 -1.4782 -3.0791
 1028ESO    C2a19333   4.373   2.166   3.071 -0.1216  0.3750  0.6054
 1028ESO    H2a19334   4.391   2.254   3.012 -1.1278 -1.5346 -2.5887
 1028ESO    H2a19335   4.277   2.117   3.057  1.8188  0.5277  2.3154
 1028ESO    H2a19336   4.451   2.093   3.045  0.6431 -2.1415  2.8179
 1029ESO     O119337   1.589   4.575   3.068 -0.2933 -0.0148  0.3959
 1029ESO     O119338   1.406   4.669   2.956  0.0349 -0.0432  0.3890
 1029ESO     O119339   1.555   4.807   3.088 -0.4075 -0.6731 -0.4566
 1029ESO      S19340   1.538   4.694   3.006  0.3582  0.3677 -0.2496
 1029ESO     O219341   1.620   4.726   2.873 -0.1874  0.4831 -0.2482
 1029ESO    C1a19342   1.574   4.832   2.781  0.8114  1.1734 -0.0259
 1029ESO    H1a19343   1.467   4.813   2.746  0.4011  0.2348  2.7668
 1029ESO    H1a19344   1.568   4.930   2.822 -0.2452 -2.9651 -2.1572
 1029ESO    C2a19345   1.682   4.822   2.677 -0.3736  0.1676 -0.3691
 1029ESO    H2a19346   1.676   4.729   2.618  1.0435  2.0643 -1.6413
 1029ESO    H2a19347   1.776   4.820   2.730  1.1009 -0.5061  0.0043
 1029ESO    H2a19348   1.680   4.902   2.614 -1.5848 -0.7489 -0.4585
 1030ESO     O119349   0.182   5.736   4.113 -0.4338 -0.2592 -0.5192
 1030ESO     O119350   0.362   5.893   4.101 -0.1378 -0.1777  0.4698
 1030ESO     O119351   0.287   5.798   3.900  0.0132  0.6421 -0.7423
 1030ESO      S19352   0.247   5.836   4.034  0.1777  0.0915 -0.1342
 1030ESO     O219353   0.139   5.956   4.015  0.6834  0.2016 -0.1227
 1030ESO    C1a19354   0.182   6.072   3.949 -0.0888 -0.3743 -0.1925
 1030ESO    H1a19355   0.256   6.129   3.997 -0.6638  0.9708  0.3169
 1030ESO    H1a19356   0.212   6.044   3.848 -0.7079  0.3669 -1.8789
 1030ESO    C2a19357   0.061   6.164   3.938 -0.2970 -0.1077  0.6507
 1030ESO    H2a19358   0.090   6.249   3.880  0.0746 -2.2503  2.0881
 1030ESO    H2a19359   0.037   6.201   4.033 -0.9118 -1.4616 -2.2716
 1030ESO    H2a19360  -0.027   6.120   3.890  2.4314  2.6409 -2.1480
 1031ESO     O119361   0.742   4.260   1.138 -0.2948 -0.0367  0.9407
 1031ESO     O119362   0.803   4.248   1.366  0.0216  0.1992 -0.4610
 1031ESO     O119363   0.614   4.125   1.281  0.1024  1.3192 -0.7425
 1031ESO      S19364   0.744   4.181   1.257 -0.3479 -0.3521  0.3316
 1031ESO     O219365   0.836   4.061   1.231 -0.3249 -0.1144  0.2813
 1031ESO    C1a19366   0.805   3.966   1.128  0.2268  0.2368 -0.4427
 1031ESO    H1a19367   0.750   3.879   1.170  0.2495  0.9914  2.1203
 1031ESO    H1a19368   0.730   4.013   1.057  0.4021  1.2036  0.3091
 1031ESO    C2a19369   0.938   3.935   1.060 -0.5188  0.3600 -1.0667
 1031ESO    H2a19370   0.931   3.874   0.971  1.5452  3.7160  0.4721
 1031ESO    H2a19371   1.017   3.897   1.131 -0.4899 -0.8769 -0.1836
 1031ESO    H2a19372   0.981   4.031   1.026  0.8696 -1.8602 -1.4539
 1032ESO     O119373   0.972   1.896   1.374  0.2390  0.1522 -0.0437
 1032ESO     O119374   1.009   1.950   1.149  0.0871 -1.1019  0.5300
 1032ESO     O119375   0.977   1.717   1.212  0.1866 -0.2972  0.2832
 1032ESO      S19376   0.949   1.857   1.237  0.0524  0.0659 -0.1967
 1032ESO     O219377   0.795   1.886   1.229  0.1187 -0.4300  0.2075
 1032ESO    C1a19378   0.696   1.815   1.297  0.4690  0.1351  0.0215
 1032ESO    H1a19379   0.742   1.760   1.383 -2.2873  1.0497  3.1251
 1032ESO    H1a19380   0.611   1.880   1.325 -0.1619 -2.3327  0.7196
 1032ESO    C2a19381   0.635   1.719   1.198  0.3544  0.1905 -0.1530
 1032ESO    H2a19382   0.697   1.634   1.181 -2.1006 -0.1069 -3.2094
 1032ESO    H2a19383   0.624   1.761   1.102 -0.9634  1.1923  1.3064
 1032ESO    H2a19384   0.537   1.684   1.224 -1.4752  2.0246 -0.4701
 1033ESO     O119385   4.953   5.024   4.673  0.8510  0.5433 -0.0952
 1033ESO     O119386   4.856   5.240   4.633 -0.4215 -0.9058 -0.0381
 1033ESO     O119387   4.839   5.150   4.845  0.1990 -0.0288 -0.3757
 1033ESO      S19388   4.921   5.152   4.729  0.4692 -0.2429  0.1796
 1033ESO     O219389   5.062   5.221   4.774 -0.0595  0.8032  0.0663
 1033ESO    C1a19390   5.165   5.258   4.670  0.0915  0.5133  0.0602
 1033ESO    H1a19391   5.215   5.171   4.626  2.2497 -0.4330 -2.1154
 1033ESO    H1a19392   5.112   5.310   4.589  0.0243  0.1142  0.0679
 1033ESO    C2a19393   5.255   5.349   4.748  0.6043  0.0913  0.6859
 1033ESO    H2a19394   5.210   5.433   4.792  4.5638  0.1196  0.1021
 1033ESO    H2a19395   5.335   5.386   4.686 -1.7903 -0.7856  2.4043
 1033ESO    H2a19396   5.296   5.285   4.823  0.4224 -1.3879 -1.4457
 1034ESO     O119397   1.374   2.424   0.160  0.3097  0.0728 -0.4210
 1034ESO     O119398   1.257   2.253   0.034 -0.0133  0.8458 -0.0673
 1034ESO     O119399   1.481   2.322  -0.029  0.0074  0.3011  0.3140
 1034ESO      S19400   1.387   2.302   0.078  0.3139 -0.6611 -0.0429
 1034ESO     O219401   1.428   2.187   0.174  0.1608  0.9117 -0.3809
 1034ESO    C1a19402   1.359   2.167   0.303  0.6454 -0.2052  0.9205
 1034ESO    H1a19403   1.378   2.245   0.376  0.5162  0.7624  0.3857
 1034ESO    H1a19404   1.256   2.143   0.288  0.6417 -2.6934 -1.4381
 1034ESO    C2a19405   1.425   2.041   0.368  0.2316  0.4094 -0.5365
 1034ESO    H2a19406   1.366   2.018   0.455  2.8948 -0.5110 -1.9146
 1034ESO    H2a19407   1.530   2.057   0.403  1.8633  0.4079 -1.0282
 1034ESO    H2a19408   1.412   1.958   0.303  2.3294  2.1225  1.6968
 1035ESO     O119409   1.349   2.181   5.037 -0.3805 -0.0646 -0.4568
 1035ESO     O119410   1.184   2.070   5.160  0.0736  0.4415 -0.0533
 1035ESO     O119411   1.323   1.940   5.006  0.2347  0.1755  0.0364
 1035ESO      S19412   1.312   2.054   5.097  0.0693 -0.2557  0.1359
 1035ESO     O219413   1.421   2.033   5.213 -0.1860  0.5665 -0.0494
 1035ESO    C1a19414   1.415   1.922   5.310  0.3788 -0.6170  0.1449
 1035ESO    H1a19415   1.313   1.946   5.344  0.1838  2.2959 -2.3048
 1035ESO    H1a19416   1.425   1.826   5.256  2.3255 -0.2319  2.1410
 1035ESO    C2a19417   1.523   1.947   5.415 -0.0455 -0.5080 -0.2391
 1035ESO    H2a19418   1.567   2.039   5.409 -0.2793 -1.0650  0.5156
 1035ESO    H2a19419   1.606   1.881   5.415 -1.5012  0.5983  2.5312
 1035ESO    H2a19420   1.482   1.958   5.510  0.7042  2.5238 -1.4465
 1036ESO     O119421   4.887   6.223   5.366 -0.1147  0.3140  0.2113
 1036ESO     O119422   4.840   6.235   5.134 -0.1349  0.1041 -0.0664
 1036ESO     O119423   4.690   6.339   5.290 -0.2818 -0.5912 -0.0798
 1036ESO      S19424   4.828   6.299   5.260 -0.4308  0.2460  0.4345
 1036ESO     O219425   4.917   6.431   5.256  0.3623  0.2688  0.3917
 1036ESO    C1a19426   4.915   6.519   5.374 -0.0982 -0.1018  0.0136
 1036ESO    H1a19427   4.810   6.543   5.394 -1.3696 -0.7043  2.9363
 1036ESO    H1a19428   4.959   6.475   5.461 -0.4831 -0.5918 -0.5649
 1036ESO    C2a19429   4.975   6.645   5.321 -0.7012 -0.1595  0.2031
 1036ESO    H2a19430   4.943   6.735   5.372  0.0886  0.5535 -0.1948
 1036ESO    H2a19431   4.936   6.658   5.221  0.5286 -3.0005 -2.6138
 1036ESO    H2a19432   5.079   6.637   5.310 -1.5980 -0.2266 -0.8116
 1037ESO     O119433   2.641   3.727   6.467 -0.3565  0.2433 -0.3919
 1037ESO     O119434   2.611   3.937   6.591  0.1924  0.4227  0.0755
 1037ESO     O119435   2.447   3.853   6.441 -0.0631  0.2856 -0.3713
 1037ESO      S19436   2.554   3.821   6.530 -0.2209 -0.2262 -0.3012
 1037ESO     O219437   2.490   3.750   6.658 -0.4264 -0.1664 -0.0130
 1037ESO    C1a19438   2.390   3.821   6.727  0.2433  0.5125  0.3593
 1037ESO    H1a19439   2.393   3.919   6.684 -1.1489  0.0360 -1.2889
 1037ESO    H1a19440   2.291   3.778   6.716 -0.6964  1.2874  0.2740
 1037ESO    C2a19441   2.440   3.843   6.868  0.0136 -0.2644  0.3127
 1037ESO    H2a19442   2.395   3.939   6.913  3.6996 -0.0491  1.8198
 1037ESO    H2a19443   2.548   3.858   6.858 -1.9226 -1.1788 -1.4401
 1037ESO    H2a19444   2.423   3.755   6.928  1.6598  0.9873  2.0534
 1038ESO     O119445   3.524   4.449   2.604 -0.4857  0.2202 -0.0174
 1038ESO     O119446   3.629   4.657   2.555  0.0282 -0.0679  0.5805
 1038ESO     O119447   3.399   4.652   2.629 -0.0514 -0.0969 -0.2617
 1038ESO      S19448   3.529   4.592   2.634 -0.0974 -0.5449 -0.1368
 1038ESO     O219449   3.583   4.599   2.783 -0.0793  0.6134  0.4045
 1038ESO    C1a19450   3.628   4.733   2.824  0.2923 -0.0348 -0.1575
 1038ESO    H1a19451   3.709   4.771   2.773  1.6744 -1.3121  0.7251
 1038ESO    H1a19452   3.548   4.796   2.812 -0.5875 -1.5881  0.5235
 1038ESO    C2a19453   3.647   4.717   2.974 -0.0104  0.0092 -1.1287
 1038ESO    H2a19454   3.739   4.667   2.994  1.3043 -2.0379 -0.5222
 1038ESO    H2a19455   3.560   4.674   3.028 -0.7698 -1.1715 -1.1926
 1038ESO    H2a19456   3.658   4.821   3.011  0.0714  2.4125 -1.4412
 1039ESO     O119457   2.776   2.228   2.039 -0.3831 -0.5225  0.8327
 1039ESO     O119458   2.743   2.125   1.830  0.1997  0.4650  0.2175
 1039ESO     O119459   2.928   2.277   1.865  0.5239 -0.3045 -0.2903
 1039ESO      S19460   2.839   2.178   1.923  0.0705  0.2481  0.2112
 1039ESO     O219461   2.929   2.056   1.979 -0.3234  0.1096  0.0787
 1039ESO    C1a19462   2.866   1.938   2.030  0.2592 -0.6564 -0.5613
 1039ESO    H1a19463   2.857   1.952   2.144 -0.4079 -1.1950  2.3297
 1039ESO    H1a19464   2.771   1.928   1.975  0.8759 -0.1654  1.3180
 1039ESO    C2a19465   2.952   1.819   2.011  0.2263 -0.0051 -0.2563
 1039ESO    H2a19466   2.906   1.735   2.064 -0.2999 -0.7207  2.3491
 1039ESO    H2a19467   3.051   1.829   2.058  0.7795  2.6421  2.2299
 1039ESO    H2a19468   2.975   1.804   1.905  1.3302 -0.5872 -1.4982
 1040ESO     O119469   1.697   5.235   6.059 -0.3023  0.0959 -0.3737
 1040ESO     O119470   1.870   5.306   6.208  0.1090  0.1377 -0.2169
 1040ESO     O119471   1.649   5.280   6.284 -0.6753 -0.2562 -0.2188
 1040ESO      S19472   1.750   5.236   6.193 -0.0809  0.1410  0.2706
 1040ESO     O219473   1.784   5.084   6.234 -0.0051 -1.2073 -0.5102
 1040ESO    C1a19474   1.914   5.026   6.244 -0.8732  0.4386  0.6542
 1040ESO    H1a19475   1.979   5.082   6.315 -0.5424 -0.1691  1.9265
 1040ESO    H1a19476   1.906   4.924   6.275  0.5571 -0.8242 -0.8795
 1040ESO    C2a19477   1.976   5.014   6.105  0.2999  0.2261 -0.0295
 1040ESO    H2a19478   1.978   5.110   6.050  0.2888  0.9154  0.1750
 1040ESO    H2a19479   1.922   4.945   6.048  0.5763 -1.1938 -1.0057
 1040ESO    H2a19480   2.078   4.976   6.102  0.1014  0.1076 -1.3861
 1041ESO     O119481   0.092   0.163   4.631  0.0311 -0.3051  0.4812
 1041ESO     O119482   0.298   0.044   4.575  0.1472 -0.3267  0.7025
 1041ESO     O119483   0.086  -0.023   4.472 -0.6455 -0.2638  0.0806
 1041ESO      S19484   0.167   0.086   4.532 -0.1049 -0.0673 -0.0775
 1041ESO     O219485   0.187   0.188   4.409  0.2525  0.0372  0.8880
 1041ESO    C1a19486   0.280   0.302   4.437 -0.0168 -0.3941  0.3007
 1041ESO    H1a19487   0.241   0.371   4.518  0.0775  2.9516 -1.6665
 1041ESO    H1a19488   0.374   0.269   4.478 -0.7555  0.1124  0.9083
 1041ESO    C2a19489   0.300   0.381   4.306  0.6798  0.6262 -0.0390
 1041ESO    H2a19490   0.204   0.393   4.258 -0.5625 -2.5603  0.6268
 1041ESO    H2a19491   0.367   0.327   4.240 -0.5040 -0.3253  0.3370
 1041ESO    H2a19492   0.335   0.476   4.338  0.0819  0.8651 -0.6769
 1042ESO     O119493   6.634   3.464   1.076 -0.2098  0.1869 -0.0456
 1042ESO     O119494   6.855   3.463   0.989  0.2669  0.2703 -0.0311
 1042ESO     O119495   6.740   3.256   1.020  0.2348 -0.5445 -0.4924
 1042ESO      S19496   6.730   3.395   0.990 -0.0211 -0.1665  0.0582
 1042ESO     O219497   6.669   3.416   0.843 -0.4307  0.5667  0.6979
 1042ESO    C1a19498   6.751   3.364   0.735 -0.0040  0.0752 -0.5927
 1042ESO    H1a19499   6.856   3.352   0.768 -0.2987 -2.0751 -0.6573
 1042ESO    H1a19500   6.701   3.265   0.696  0.2497  1.1954 -1.0960
 1042ESO    C2a19501   6.737   3.476   0.631  0.4020 -0.3103 -0.0378
 1042ESO    H2a19502   6.781   3.567   0.665 -0.3754 -1.0408 -0.7049
 1042ESO    H2a19503   6.630   3.491   0.623 -0.8969 -0.9692  2.5070
 1042ESO    H2a19504   6.782   3.433   0.548  2.3169  0.4925  2.6959
 1043ESO     O119505   4.005   2.198   4.272  0.2705 -0.8067  0.1981
 1043ESO     O119506   4.021   2.381   4.412  0.4332  0.2351  0.5507
 1043ESO     O119507   4.126   2.392   4.198  0.4321 -0.0718 -0.0509
 1043ESO      S19508   4.020   2.338   4.280 -0.2736 -0.3529  0.0216
 1043ESO     O219509   3.889   2.402   4.215  0.9462  0.1521 -0.2116
 1043ESO    C1a19510   3.765   2.373   4.287  0.0604 -0.0047  0.7523
 1043ESO    H1a19511   3.696   2.328   4.216  0.5670 -3.7013  0.1834
 1043ESO    H1a19512   3.778   2.303   4.363 -0.2853  2.5041  1.9362
 1043ESO    C2a19513   3.708   2.508   4.333  0.2523  0.5556  0.4633
 1043ESO    H2a19514   3.761   2.549   4.409 -2.1704  1.9035  0.3416
 1043ESO    H2a19515   3.607   2.489   4.366  2.6852 -0.1292 -0.7872
 1043ESO    H2a19516   3.703   2.585   4.254  0.6814  1.1662  0.9638
 1044ESO     O119517   2.232   4.953   5.189 -1.0292 -0.6453  0.5942
 1044ESO     O119518   2.235   5.191   5.198  0.0763  0.0761  0.4483
 1044ESO     O119519   2.085   5.065   5.040  0.3792  0.0710  0.2096
 1044ESO      S19520   2.152   5.072   5.169 -0.0059 -0.2148  0.2808
 1044ESO     O219521   2.043   5.062   5.274 -0.1563 -0.1348 -0.1044
 1044ESO    C1a19522   2.078   5.078   5.413  0.0465 -0.0363  0.1254
 1044ESO    H1a19523   2.102   4.979   5.455 -2.0462  0.0576 -0.0949
 1044ESO    H1a19524   2.161   5.154   5.421  2.3191  0.1226 -3.0037
 1044ESO    C2a19525   1.943   5.117   5.475 -0.9057 -0.0189 -0.1574
 1044ESO    H2a19526   1.909   5.211   5.432  0.4780  0.1662 -0.5373
 1044ESO    H2a19527   1.941   5.146   5.577  0.6247 -2.6918 -0.0598
 1044ESO    H2a19528   1.861   5.050   5.451 -1.9173  0.8019  1.4790
 1045ESO     O119529   0.408   3.750   0.884  0.1251  0.2019  0.1634
 1045ESO     O119530   0.641   3.701   0.844  0.4903  0.0980  0.0378
 1045ESO     O119531   0.562   3.764   1.068 -0.5111  0.0842  0.1316
 1045ESO      S19532   0.532   3.698   0.939 -0.3003 -0.2431 -0.1820
 1045ESO     O219533   0.502   3.544   0.961  0.3305  0.5014 -0.2013
 1045ESO    C1a19534   0.411   3.496   1.064  0.6037  0.2824 -0.3582
 1045ESO    H1a19535   0.445   3.530   1.164 -0.9570 -1.6104  0.0651
 1045ESO    H1a19536   0.311   3.541   1.053 -1.5077  1.0709  1.1722
 1045ESO    C2a19537   0.399   3.351   1.057 -0.1387  0.5432 -0.5889
 1045ESO    H2a19538   0.483   3.299   1.088 -2.4839 -0.9837 -1.7510
 1045ESO    H2a19539   0.384   3.321   0.951 -0.3794  2.4580  0.4816
 1045ESO    H2a19540   0.315   3.310   1.113  0.8173  1.3065 -0.1066
 1046ESO     O119541   4.170   1.818   0.840 -0.0661  0.3298 -0.2773
 1046ESO     O119542   4.117   1.722   0.620  0.3933  0.0147  0.0255
 1046ESO     O119543   4.296   1.874   0.649  0.0037 -0.7215  0.2817
 1046ESO      S19544   4.215   1.775   0.713 -0.2574 -0.1946 -0.3760
 1046ESO     O219545   4.305   1.650   0.748 -0.3417  0.1842 -0.1735
 1046ESO    C1a19546   4.244   1.535   0.818 -0.9300 -0.0550  0.7801
 1046ESO    H1a19547   4.180   1.563   0.899 -0.2875  1.4314 -1.0377
 1046ESO    H1a19548   4.193   1.472   0.741 -2.2048 -1.1380  0.1730
 1046ESO    C2a19549   4.355   1.450   0.869 -0.5717 -0.7680 -0.2496
 1046ESO    H2a19550   4.369   1.450   0.981 -0.1892 -2.6902  3.7274
 1046ESO    H2a19551   4.448   1.474   0.824 -3.4166 -1.4044  2.3131
 1046ESO    H2a19552   4.341   1.349   0.845 -0.2885 -0.6399 -0.2244
 1047ESO     O119553   3.674   3.287   4.600 -0.6588 -0.0010  0.0488
 1047ESO     O119554   3.812   3.216   4.417 -0.6439 -0.4266  0.6350
 1047ESO     O119555   3.908   3.364   4.586 -0.3457 -1.0075 -0.6306
 1047ESO      S19556   3.806   3.265   4.554  0.3567 -0.2059  0.0802
 1047ESO     O219557   3.855   3.129   4.628 -0.0566  0.3965  0.5622
 1047ESO    C1a19558   3.846   3.107   4.765 -0.3831 -0.3998 -0.3009
 1047ESO    H1a19559   3.899   3.190   4.815 -0.8778  1.7157 -0.0075
 1047ESO    H1a19560   3.739   3.114   4.788 -4.2678  2.1886  0.2634
 1047ESO    C2a19561   3.908   2.974   4.792  0.0933  0.3795  0.2938
 1047ESO    H2a19562   3.842   2.899   4.739 -0.3403 -1.4234 -1.6021
 1047ESO    H2a19563   3.903   2.941   4.898 -1.0513  0.6581  0.9214
 1047ESO    H2a19564   4.016   2.976   4.769 -0.9527 -0.8040  0.3720
 1048ESO     O119565   3.857   2.844   2.194 -0.1941  0.0209  0.1690
 1048ESO     O119566   3.947   2.882   2.412 -0.1464  0.1831  0.1613
 1048ESO     O119567   4.098   2.857   2.231 -0.4373 -0.2031  0.0443
 1048ESO      S19568   3.967   2.900   2.270  0.1359  0.3021  0.1846
 1048ESO     O219569   3.972   3.057   2.267  0.2719  0.3648  0.0231
 1048ESO    C1a19570   3.984   3.129   2.142  0.4823 -0.3914 -0.4233
 1048ESO    H1a19571   4.051   3.083   2.072  1.3583 -1.5707 -0.1385
 1048ESO    H1a19572   3.890   3.143   2.095 -1.8057  2.6567  0.0557
 1048ESO    C2a19573   4.052   3.267   2.165 -1.0516  0.0610  0.0090
 1048ESO    H2a19574   4.159   3.266   2.180 -0.4885  2.0026 -0.9647
 1048ESO    H2a19575   4.005   3.319   2.243  0.7302  0.3353 -3.6152
 1048ESO    H2a19576   4.046   3.326   2.077  0.3825 -0.3036 -0.9182
 1049ESO     O119577   0.563   0.891   6.564 -0.1062  0.4864  0.1594
 1049ESO     O119578   0.378   0.783   6.456 -0.2761  0.4311 -0.0576
 1049ESO     O119579   0.463   0.697   6.655 -0.0044  0.0811  0.8109
 1049ESO      S19580   0.443   0.815   6.579 -0.0339  0.0804 -0.4552
 1049ESO     O219581   0.338   0.910   6.653 -0.2219  0.1708 -0.4645
 1049ESO    C1a19582   0.314   1.042   6.610 -0.2954 -0.5475  0.3847
 1049ESO    H1a19583   0.294   1.104   6.694 -0.8470 -0.9085  0.3440
 1049ESO    H1a19584   0.406   1.076   6.556  0.5253 -0.0374 -1.8798
 1049ESO    C2a19585   0.194   1.047   6.513 -0.2733  0.6250 -0.2763
 1049ESO    H2a19586   0.111   1.008   6.574 -0.5920  0.6525  0.9953
 1049ESO    H2a19587   0.210   0.986   6.421  3.1654  0.5165  2.2341
 1049ESO    H2a19588   0.178   1.154   6.478  2.5581  0.3253  0.4941
 1050ESO     O119589   0.871   2.813   0.297  0.4495  0.0855 -0.4071
 1050ESO     O119590   0.808   2.584   0.244 -0.2903 -0.3294  0.2786
 1050ESO     O119591   0.760   2.764   0.086  0.0388 -0.6514  0.2767
 1050ESO      S19592   0.848   2.715   0.190 -0.0269 -0.3865  0.0866
 1050ESO     O219593   0.995   2.687   0.117  0.2699  0.4707 -0.1786
 1050ESO    C1a19594   1.006   2.587   0.009  0.4692  0.0116  0.5470
 1050ESO    H1a19595   0.973   2.490   0.034 -2.1131  0.0580  0.4923
 1050ESO    H1a19596   0.935   2.624  -0.068  1.0326  1.2260  2.1997
 1050ESO    C2a19597   1.149   2.600  -0.050 -0.5175  0.2913  0.0073
 1050ESO    H2a19598   1.169   2.514  -0.120 -1.6432 -0.6519 -0.0657
 1050ESO    H2a19599   1.231   2.602   0.021  1.1514  0.4653 -0.9827
 1050ESO    H2a19600   1.154   2.694  -0.102  1.1157  0.9009  1.5382
 1051ESO     O119601   2.575   2.221   5.965  0.6552 -0.0294 -0.4463
 1051ESO     O119602   2.575   2.164   6.201 -0.2579  0.0364 -0.5612
 1051ESO     O119603   2.364   2.217   6.097 -0.2299  0.3366  0.1889
 1051ESO      S19604   2.500   2.165   6.076  0.1874 -0.2009  0.2972
 1051ESO     O219605   2.475   2.008   6.043 -0.3601  0.0067 -0.2442
 1051ESO    C1a19606   2.448   1.965   5.911 -0.0745  0.0347  0.9773
 1051ESO    H1a19607   2.378   1.884   5.922 -0.1920  3.6162 -0.6033
 1051ESO    H1a19608   2.400   2.040   5.847  1.6892  0.5198  1.4603
 1051ESO    C2a19609   2.584   1.908   5.855  0.3107 -0.5734  1.1185
 1051ESO    H2a19610   2.632   1.844   5.929 -3.3840 -0.1378 -3.3869
 1051ESO    H2a19611   2.646   1.987   5.820  0.0466  1.2992  1.0437
 1051ESO    H2a19612   2.555   1.857   5.758 -1.4880 -0.2097 -1.8315
 1052ESO     O119613   1.299   1.188   3.877 -0.1567 -0.1012  0.0563
 1052ESO     O119614   1.292   1.048   4.071 -0.4272 -0.1268  0.3272
 1052ESO     O119615   1.100   1.162   4.017  0.4640 -0.2074  0.5585
 1052ESO      S19616   1.220   1.110   3.965  0.1883 -0.3784 -0.5086
 1052ESO     O219617   1.176   0.989   3.870  0.6378  0.3433  0.0805
 1052ESO    C1a19618   1.067   1.004   3.770  0.5289 -0.3633 -0.1123
 1052ESO    H1a19619   0.966   1.014   3.818 -0.7044 -0.8835 -0.2777
 1052ESO    H1a19620   1.075   1.102   3.717  0.1145 -1.7992 -1.3713
 1052ESO    C2a19621   1.068   0.877   3.682 -0.4666  0.3565  0.0017
 1052ESO    H2a19622   0.974   0.844   3.648 -0.5561 -0.9792  1.9431
 1052ESO    H2a19623   1.124   0.792   3.736  1.6291 -0.3781  2.3071
 1052ESO    H2a19624   1.128   0.891   3.594 -1.1223 -0.6882 -3.8274
 1053ESO     O119625   2.745   6.542   4.867  0.2119 -0.0538 -0.4755
 1053ESO     O119626   2.765   6.357   4.716 -0.0971 -0.3963  0.4229
 1053ESO     O119627   2.773   6.582   4.640 -0.1145 -0.6624  0.2025
 1053ESO      S19628   2.803   6.492   4.745  0.1740  0.3442 -0.3181
 1053ESO     O219629   2.957   6.504   4.774 -0.1452  0.1296 -0.2764
 1053ESO    C1a19630   3.050   6.462   4.670  0.2580  0.9348  0.1970
 1053ESO    H1a19631   3.014   6.363   4.638 -0.0791  0.7267  1.1621
 1053ESO    H1a19632   3.037   6.520   4.590 -2.5068  2.1797 -1.0828
 1053ESO    C2a19633   3.194   6.467   4.735 -0.6167  0.1387 -0.8904
 1053ESO    H2a19634   3.202   6.558   4.808  0.9720  0.7047  0.4373
 1053ESO    H2a19635   3.279   6.477   4.669 -0.2800  1.7925 -0.9636
 1053ESO    H2a19636   3.215   6.363   4.780 -1.5490  0.7699 -0.8287
 1054ESO     O119637   1.293   4.514   5.405  0.3548  0.1615  0.1249
 1054ESO     O119638   1.494   4.650   5.398  0.3126 -0.1354 -0.0693
 1054ESO     O119639   1.350   4.634   5.205  0.7293  0.6648 -0.5326
 1054ESO      S19640   1.360   4.630   5.350 -0.0558  0.0226  0.5821
 1054ESO     O219641   1.268   4.742   5.400  0.2608  0.1773 -0.0949
 1054ESO    C1a19642   1.310   4.881   5.370  0.3744 -0.0133  0.7335
 1054ESO    H1a19643   1.388   4.923   5.433 -0.3066 -0.5321  0.0959
 1054ESO    H1a19644   1.344   4.887   5.268 -1.1780  1.6480 -0.0659
 1054ESO    C2a19645   1.186   4.966   5.398 -0.2945  0.7320 -0.1734
 1054ESO    H2a19646   1.093   4.938   5.345 -2.2820 -0.8783 -2.0371
 1054ESO    H2a19647   1.222   5.067   5.375  0.8129  1.4483 -0.6404
 1054ESO    H2a19648   1.167   4.977   5.504  3.7887 -0.4500  0.8235
 1055ESO     O119649   2.470   0.033   6.499 -0.0154  0.0424  0.3009
 1055ESO     O119650   2.544  -0.177   6.414  0.5497 -0.9837  0.4967
 1055ESO     O119651   2.688  -0.048   6.560 -0.0727 -0.3652  0.2538
 1055ESO      S19652   2.554  -0.082   6.523  0.1285 -0.0757 -0.2666
 1055ESO     O219653   2.483  -0.148   6.657 -0.2208  0.3153 -0.1996
 1055ESO    C1a19654   2.558  -0.264   6.710 -0.9913 -0.7115 -0.1807
 1055ESO    H1a19655   2.498  -0.354   6.703 -1.3598  1.9083  1.4288
 1055ESO    H1a19656   2.659  -0.276   6.657 -1.2024  0.9646 -1.9301
 1055ESO    C2a19657   2.577  -0.241   6.859 -0.5082  0.1413 -0.2330
 1055ESO    H2a19658   2.626  -0.334   6.902  0.8572 -0.0373 -0.6872
 1055ESO    H2a19659   2.478  -0.226   6.913  0.6744 -2.7234 -1.1324
 1055ESO    H2a19660   2.644  -0.154   6.871 -0.7191  0.2029  2.3099
 1056ESO     O119661   1.880   5.465   4.670 -0.2683 -0.2714  0.4718
 1056ESO     O119662   1.770   5.288   4.555  0.2773 -0.4600  0.1001
 1056ESO     O119663   1.726   5.512   4.496  0.5595  0.0164  0.0590
 1056ESO      S19664   1.827   5.418   4.545  0.3413 -0.0308 -0.0981
 1056ESO     O219665   1.946   5.403   4.448 -0.2988  0.0871 -0.3065
 1056ESO    C1a19666   2.037   5.504   4.406  0.8936 -0.4651 -0.6487
 1056ESO    H1a19667   1.996   5.534   4.302  1.3427  1.8021  1.1104
 1056ESO    H1a19668   2.020   5.600   4.467 -1.2024  0.1816 -2.3566
 1056ESO    C2a19669   2.177   5.451   4.405  0.1973 -0.7435  0.5114
 1056ESO    H2a19670   2.239   5.511   4.347  0.0096 -1.5275  0.0124
 1056ESO    H2a19671   2.162   5.344   4.358 -1.5822 -3.3229  0.3050
 1056ESO    H2a19672   2.209   5.441   4.504  0.1313  2.4766 -1.8578
 1057ESO     O119673   3.867   0.693   1.930 -0.1836 -0.4680 -0.0471
 1057ESO     O119674   3.673   0.688   2.065  0.0879 -0.1319  0.3186
 1057ESO     O119675   3.743   0.486   1.948 -0.3306 -0.2022 -0.3971
 1057ESO      S19676   3.783   0.611   2.014  0.2294  0.3814 -0.0982
 1057ESO     O219677   3.860   0.570   2.147 -0.4788  0.3055  0.0578
 1057ESO    C1a19678   3.904   0.668   2.251 -0.3748 -0.3200 -0.4593
 1057ESO    H1a19679   3.828   0.738   2.274  3.5526  0.1423  0.1809
 1057ESO    H1a19680   3.925   0.605   2.339  0.1239 -2.4589  0.6057
 1057ESO    C2a19681   4.027   0.732   2.208 -0.1507 -0.5084 -0.1339
 1057ESO    H2a19682   4.103   0.661   2.173 -1.9144  1.9231  0.0531
 1057ESO    H2a19683   4.079   0.766   2.298  1.4435 -3.2257  0.4755
 1057ESO    H2a19684   3.994   0.812   2.138  0.5863  0.8739  3.0255
 1058ESO     O119685   2.639   1.537   5.200 -0.1175 -0.3033 -0.6424
 1058ESO     O119686   2.496   1.405   5.071 -0.0579  0.4746 -0.0782
 1058ESO     O119687   2.404   1.520   5.258 -0.2740 -0.1288 -0.1140
 1058ESO      S19688   2.505   1.522   5.151 -0.0424 -0.4480  0.8764
 1058ESO     O219689   2.473   1.648   5.052 -0.4805  0.0020 -0.1682
 1058ESO    C1a19690   2.441   1.775   5.124  0.2000 -0.1490  0.3181
 1058ESO    H1a19691   2.338   1.802   5.112  1.2109 -0.2534 -0.7499
 1058ESO    H1a19692   2.465   1.761   5.232  1.0571 -0.4759 -0.7351
 1058ESO    C2a19693   2.521   1.892   5.073  0.4095 -0.2788 -1.1074
 1058ESO    H2a19694   2.514   1.888   4.964  0.6995 -1.1459 -1.7637
 1058ESO    H2a19695   2.622   1.891   5.103 -1.1878 -0.9188 -2.0867
 1058ESO    H2a19696   2.481   1.988   5.101  2.0008 -0.8506  0.4554
 1059ESO     O119697   3.468   5.252   3.664 -0.0567 -0.2797 -0.4415
 1059ESO     O119698   3.458   5.216   3.901  0.4348 -0.1242  0.4447
 1059ESO     O119699   3.366   5.411   3.812  0.1335 -0.6271  0.6581
 1059ESO      S19700   3.398   5.276   3.791  0.2895 -0.3372 -0.0027
 1059ESO     O219701   3.268   5.189   3.770  0.0991  0.1270  0.2926
 1059ESO    C1a19702   3.264   5.059   3.719 -0.2742 -1.1483 -0.1852
 1059ESO    H1a19703   3.287   5.064   3.613  0.4765 -0.7359 -0.8264
 1059ESO    H1a19704   3.334   4.994   3.763 -1.3851  0.2271 -2.8935
 1059ESO    C2a19705   3.125   5.007   3.742 -0.2592 -0.5344  0.6988
 1059ESO    H2a19706   3.103   4.910   3.688  0.0109 -1.0175 -1.1952
 1059ESO    H2a19707   3.051   5.079   3.698 -1.3472 -0.5080 -0.3121
 1059ESO    H2a19708   3.105   5.008   3.842  5.3915  0.3607 -2.4637
 1060ESO     O119709   2.727   3.758   5.336  0.2535  0.5849  0.4969
 1060ESO     O119710   2.566   3.585   5.302  0.0054  0.0874 -0.1178
 1060ESO     O119711   2.647   3.699   5.117  0.6031 -0.8331  0.3551
 1060ESO      S19712   2.678   3.653   5.247  0.0025 -0.2851 -0.0009
 1060ESO     O219713   2.799   3.547   5.232  0.3341 -0.7832  0.5100
 1060ESO    C1a19714   2.855   3.497   5.353 -0.1246  0.0506 -0.3981
 1060ESO    H1a19715   2.823   3.548   5.441  0.9757 -2.0680  0.8622
 1060ESO    H1a19716   2.813   3.396   5.365 -1.5329  0.5049  0.5181
 1060ESO    C2a19717   3.008   3.494   5.353 -0.0875 -0.0365  0.1324
 1060ESO    H2a19718   3.044   3.409   5.295  1.1994 -0.7188  1.3240
 1060ESO    H2a19719   3.046   3.474   5.454  0.2012 -0.4835  0.3522
 1060ESO    H2a19720   3.044   3.589   5.310  0.9331  0.7184  1.0375
 1061ESO     O119721   5.173   4.360   4.459  0.1424  0.0665 -0.3593
 1061ESO     O119722   5.061   4.388   4.673  0.3946  0.1653 -0.1745
 1061ESO     O119723   5.205   4.559   4.593  0.1369  0.1971 -0.5696
 1061ESO      S19724   5.118   4.451   4.558 -0.3446 -0.1404  0.2556
 1061ESO     O219725   5.008   4.521   4.466 -0.1254 -0.1325  0.1410
 1061ESO    C1a19726   4.918   4.615   4.536  0.3806  0.3807 -0.2237
 1061ESO    H1a19727   4.851   4.558   4.591  0.1045  2.4050 -1.1127
 1061ESO    H1a19728   4.967   4.681   4.600 -1.1348  1.0440 -2.5781
 1061ESO    C2a19729   4.851   4.696   4.434 -0.0312 -0.2613 -0.5822
 1061ESO    H2a19730   4.758   4.651   4.403 -0.2341  0.8209 -1.7878
 1061ESO    H2a19731   4.904   4.696   4.337  0.6316  0.5426  1.6887
 1061ESO    H2a19732   4.832   4.803   4.457  1.3582 -1.5489 -2.0781
 1062ESO     O119733   6.384   4.351   5.215  0.7398 -0.1288  0.3688
 1062ESO     O119734   6.593   4.322   5.107 -0.3971 -0.0925 -0.1833
 1062ESO     O119735   6.578   4.288   5.331  0.7320 -0.2063 -0.8546
 1062ESO      S19736   6.508   4.281   5.211 -0.0685  0.0528  0.0402
 1062ESO     O219737   6.472   4.131   5.182 -0.2493  0.0441 -0.0291
 1062ESO    C1a19738   6.360   4.075   5.257 -0.2302  0.2788  0.9088
 1062ESO    H1a19739   6.374   4.086   5.365 -1.6718 -1.6886  0.8549
 1062ESO    H1a19740   6.269   4.135   5.235 -0.5968 -0.5002 -2.9911
 1062ESO    C2a19741   6.333   3.931   5.208 -0.0103  0.0172 -0.3974
 1062ESO    H2a19742   6.415   3.865   5.230  0.2942 -0.4053  0.5104
 1062ESO    H2a19743   6.302   3.921   5.105  1.8249 -1.0715  0.4730
 1062ESO    H2a19744   6.250   3.893   5.254  2.2848  0.8948 -1.4627
 1063ESO     O119745   0.431   3.315   1.649 -0.2958  0.3665  0.3825
 1063ESO     O119746   0.545   3.516   1.683  0.4549  0.5846  0.0704
 1063ESO     O119747   0.453   3.460   1.462  0.1034 -0.2748  0.0866
 1063ESO      S19748   0.440   3.451   1.606  0.1965 -0.0953 -0.1341
 1063ESO     O219749   0.300   3.518   1.646  0.0090 -0.0025  0.0961
 1063ESO    C1a19750   0.291   3.658   1.618 -0.0901 -0.2026  0.6366
 1063ESO    H1a19751   0.370   3.710   1.664 -2.8704  1.2232  0.8901
 1063ESO    H1a19752   0.300   3.662   1.510 -1.8605  0.0846  0.1435
 1063ESO    C2a19753   0.157   3.713   1.663  0.3568 -1.0247  0.2713
 1063ESO    H2a19754   0.137   3.715   1.774 -3.2910  0.9864 -2.0630
 1063ESO    H2a19755   0.072   3.661   1.623  0.3169  2.4070  0.3988
 1063ESO    H2a19756   0.155   3.817   1.635 -1.2830 -0.7948 -0.5033
 1064ESO     O119757   1.650   3.912   0.059 -0.0750  0.1340  0.6504
 1064ESO     O119758   1.586   4.085   0.206 -0.0816 -0.1204  0.3567
 1064ESO     O119759   1.515   4.096  -0.026 -0.2640  0.0136 -0.7171
 1064ESO      S19760   1.550   4.010   0.086  0.2504  0.1481  0.1596
 1064ESO     O219761   1.428   3.926   0.119  0.4422  0.0912  0.2858
 1064ESO    C1a19762   1.300   3.983   0.133 -0.0654 -0.1637  0.3642
 1064ESO    H1a19763   1.308   4.091   0.121 -0.9367 -1.6229  1.3066
 1064ESO    H1a19764   1.242   3.952   0.050 -1.1202  0.5859 -1.9378
 1064ESO    C2a19765   1.253   3.947   0.272 -0.1707  0.1281 -0.1754
 1064ESO    H2a19766   1.146   3.954   0.285  0.7441  0.6320  2.1119
 1064ESO    H2a19767   1.296   4.007   0.342 -2.2222  1.4542  0.3801
 1064ESO    H2a19768   1.285   3.850   0.305  0.3543 -2.6852  0.3671
 1065ESO     O119769   5.370   4.682   6.806 -0.0987  0.2423  0.2206
 1065ESO     O119770   5.441   4.573   7.003 -0.2993 -0.2709 -0.4476
 1065ESO     O119771   5.218   4.661   6.987  0.2700  0.5391  0.4946
 1065ESO      S19772   5.330   4.601   6.918 -0.1940 -0.3822  0.4292
 1065ESO     O219773   5.280   4.464   6.868  0.2776  0.5475 -0.0710
 1065ESO    C1a19774   5.344   4.385   6.763 -1.2076 -0.1505 -0.3246
 1065ESO    H1a19775   5.286   4.372   6.670 -1.0616 -1.2112 -0.9419
 1065ESO    H1a19776   5.444   4.432   6.741 -0.1361 -0.5571  1.4361
 1065ESO    C2a19777   5.377   4.255   6.824 -0.1992  1.2894 -0.1795
 1065ESO    H2a19778   5.476   4.214   6.794 -1.6499  0.8765 -0.7874
 1065ESO    H2a19779   5.305   4.181   6.787 -1.6391 -2.8122  0.5235
 1065ESO    H2a19780   5.356   4.254   6.933 -1.9482 -0.7402  1.4424
 1066ESO     O119781   4.455   4.409   1.343 -0.0890  0.3784 -0.9928
 1066ESO     O119782   4.237   4.405   1.427  0.0135  0.3122  0.4077
 1066ESO     O119783   4.290   4.312   1.212  0.6682  0.2146 -0.4979
 1066ESO      S19784   4.334   4.339   1.346 -0.0850 -0.3578  0.3205
 1066ESO     O219785   4.348   4.205   1.426 -0.7645 -0.4788 -0.3731
 1066ESO    C1a19786   4.239   4.111   1.434  0.0017 -0.5259  0.5279
 1066ESO    H1a19787   4.154   4.155   1.490  0.0257 -0.9728  1.6468
 1066ESO    H1a19788   4.208   4.084   1.327 -1.2860 -1.9349 -0.6761
 1066ESO    C2a19789   4.303   3.998   1.513  1.0824  0.4108  0.1679
 1066ESO    H2a19790   4.254   3.904   1.482 -1.5909  0.0247  0.9870
 1066ESO    H2a19791   4.307   4.016   1.621  0.5872  1.8489  0.9058
 1066ESO    H2a19792   4.405   3.981   1.468  0.6112  0.5815  1.6032
 1067ESO     O119793   3.833   5.439   1.252 -0.1575 -0.0656  0.0244
 1067ESO     O119794   3.713   5.423   1.053 -0.3001  0.2528  0.7278
 1067ESO     O119795   3.951   5.390   1.050 -0.0720  0.3052  0.3967
 1067ESO      S19796   3.827   5.375   1.123  0.2047  0.0636  0.1562
 1067ESO     O219797   3.799   5.222   1.147  0.8972 -0.3032 -0.5528
 1067ESO    C1a19798   3.895   5.152   1.241 -0.1518 -0.1395  0.3448
 1067ESO    H1a19799   3.966   5.221   1.282  2.2827 -1.1593 -1.7512
 1067ESO    H1a19800   3.834   5.100   1.318  0.3533 -1.5953  1.2790
 1067ESO    C2a19801   3.971   5.051   1.156  0.0917 -0.5930 -0.5930
 1067ESO    H2a19802   3.950   5.066   1.049 -1.2780 -1.2028  2.8651
 1067ESO    H2a19803   3.934   4.946   1.173 -0.2976 -1.5880 -0.0544
 1067ESO    H2a19804   4.075   5.059   1.182  0.9088 -0.6112  2.3698
 1068ESO     O119805   2.733   6.479   0.871 -0.5328 -0.3177 -0.3755
 1068ESO     O119806   2.737   6.257   0.785 -0.5827 -0.2572 -0.2767
 1068ESO     O119807   2.939   6.368   0.840 -0.1937 -0.2092  0.2928
 1068ESO      S19808   2.803   6.352   0.875 -0.2481  0.3583  0.0972
 1068ESO     O219809   2.783   6.300   1.025  0.1576 -0.1424  0.0907
 1068ESO    C1a19810   2.841   6.386   1.126 -0.6528  0.3751 -0.2609
 1068ESO    H1a19811   2.940   6.416   1.109  0.6684  0.4882 -0.2191
 1068ESO    H1a19812   2.772   6.468   1.139 -0.8125 -0.4516  0.3376
 1068ESO    C2a19813   2.832   6.307   1.253 -0.2584 -0.0695  0.5765
 1068ESO    H2a19814   2.736   6.270   1.283  2.2386  2.6980 -1.2879
 1068ESO    H2a19815   2.868   6.365   1.340  0.4148  0.3915 -0.2712
 1068ESO    H2a19816   2.894   6.218   1.232 -0.8282 -2.5701  1.0226
 1069ESO     O119817   0.671   5.687   1.381  0.2480 -0.5647 -0.8487
 1069ESO     O119818   0.442   5.714   1.319 -0.3149 -0.2729 -0.5726
 1069ESO     O119819   0.507   5.551   1.479 -0.1205  0.0933 -0.5016
 1069ESO      S19820   0.534   5.674   1.418  0.0188  0.5438  0.1895
 1069ESO     O219821   0.520   5.784   1.533 -0.2798 -0.0043  0.4767
 1069ESO    C1a19822   0.611   5.780   1.647  0.1883 -0.3480  0.0748
 1069ESO    H1a19823   0.566   5.705   1.709 -0.6772  0.1992  0.1094
 1069ESO    H1a19824   0.712   5.757   1.621 -5.5650 -3.0655 -1.3624
 1069ESO    C2a19825   0.607   5.919   1.723  0.3894 -0.1067 -0.5043
 1069ESO    H2a19826   0.667   5.992   1.668  0.8540 -3.3722  3.4727
 1069ESO    H2a19827   0.657   5.916   1.825 -1.7846  3.6961 -2.1986
 1069ESO    H2a19828   0.511   5.955   1.740 -0.2819  0.4477 -3.6479
 1070ESO     O119829   1.741   2.205   5.606 -0.1152 -0.0211  0.4756
 1070ESO     O119830   1.929   2.349   5.658  0.1995  0.3090 -0.1191
 1070ESO     O119831   1.778   2.287   5.824  0.0789 -0.1384  0.0709
 1070ESO      S19832   1.839   2.244   5.703 -0.2541 -0.0395  0.6322
 1070ESO     O219833   1.914   2.111   5.740  0.1118  0.4997  0.2684
 1070ESO    C1a19834   1.996   2.057   5.638  0.4759 -0.1225  0.7284
 1070ESO    H1a19835   1.949   1.967   5.596 -0.1224 -2.0070 -0.6105
 1070ESO    H1a19836   2.011   2.129   5.558 -0.7610 -2.4665  1.1775
 1070ESO    C2a19837   2.135   2.031   5.702  0.0243  0.2029  0.2672
 1070ESO    H2a19838   2.127   1.949   5.777 -1.7178  2.2401  5.6814
 1070ESO    H2a19839   2.169   2.119   5.755  0.0417  0.9413  1.6608
 1070ESO    H2a19840   2.215   2.008   5.628 -3.9339 -2.3411 -0.9300
 1071ESO     O119841   3.305   6.552   5.377  0.5899 -0.4581  0.1858
 1071ESO     O119842   3.323   6.410   5.180  0.0964  0.2604  0.4711
 1071ESO     O119843   3.472   6.588   5.212 -0.2590 -0.1132 -0.4967
 1071ESO      S19844   3.388   6.491   5.277 -0.3119 -0.4669  0.0536
 1071ESO     O219845   3.487   6.401   5.355 -0.4270  0.6140 -0.0404
 1071ESO    C1a19846   3.431   6.287   5.419 -0.1690 -0.3968  0.3379
 1071ESO    H1a19847   3.325   6.270   5.405  1.7375 -0.3235  0.6099
 1071ESO    H1a19848   3.473   6.201   5.382 -1.4943  1.5918 -2.4390
 1071ESO    C2a19849   3.452   6.293   5.574  0.0208  0.4090 -0.5519
 1071ESO    H2a19850   3.432   6.207   5.629  3.8000  1.3062  0.8534
 1071ESO    H2a19851   3.389   6.369   5.611 -0.3789  2.6883  0.8428
 1071ESO    H2a19852   3.553   6.320   5.593 -0.2506 -1.0826 -1.4352
 1072ESO     O119853   1.713   4.557   2.179 -0.4825  0.2326  0.0299
 1072ESO     O119854   1.950   4.578   2.147  0.1403 -0.1405 -0.0993
 1072ESO     O119855   1.842   4.584   2.373 -0.1262 -0.4501  0.5772
 1072ESO      S19856   1.844   4.535   2.238  0.5695 -0.0478 -0.1450
 1072ESO     O219857   1.856   4.379   2.248 -0.3558  0.2392 -0.0323
 1072ESO    C1a19858   1.979   4.320   2.295 -0.0661 -0.3754  0.1601
 1072ESO    H1a19859   2.057   4.359   2.228 -1.8046  0.2689  2.5552
 1072ESO    H1a19860   1.995   4.366   2.397  0.8283  0.4071  0.4974
 1072ESO    C2a19861   1.967   4.170   2.296  0.2184  0.1490  0.2087
 1072ESO    H2a19862   1.875   4.132   2.345 -0.2919 -0.3990  2.5058
 1072ESO    H2a19863   2.048   4.119   2.350  0.7838  2.2411  1.8604
 1072ESO    H2a19864   1.952   4.137   2.195 -0.5214  0.1561  2.7924
 1073ESO     O119865   0.474   1.536   6.241  0.9289  0.2701  0.3059
 1073ESO     O119866   0.391   1.756   6.218  0.5070  0.0887  0.0512
 1073ESO     O119867   0.312   1.587   6.074 -0.3010  0.1787 -0.4612
 1073ESO      S19868   0.364   1.617   6.205 -0.2758  0.1958  0.0959
 1073ESO     O219869   0.250   1.582   6.308 -0.3189 -0.3362  0.0528
 1073ESO    C1a19870   0.270   1.587   6.457 -0.1862 -0.1055  0.7432
 1073ESO    H1a19871   0.357   1.545   6.499 -3.1878  0.1760  1.4546
 1073ESO    H1a19872   0.270   1.694   6.485  1.7055 -1.3935 -0.0981
 1073ESO    C2a19873   0.156   1.511   6.524  0.3460 -0.4494  0.2000
 1073ESO    H2a19874   0.161   1.520   6.630  1.3962  0.1750 -1.5527
 1073ESO    H2a19875   0.158   1.405   6.507 -1.6630  2.3712 -0.8061
 1073ESO    H2a19876   0.054   1.549   6.498 -1.5700 -3.0468  2.6898
 1074ESO     O119877   3.277   2.978   1.964 -0.0842  0.1735  0.4216
 1074ESO     O119878   3.043   2.984   2.034 -0.3193  0.1915  0.2949
 1074ESO     O119879   3.212   2.993   2.191 -0.5385  0.1681 -0.1322
 1074ESO      S19880   3.178   3.024   2.057  0.1745 -0.1020 -0.5510
 1074ESO     O219881   3.166   3.180   2.047 -0.4816  0.0593 -0.0270
 1074ESO    C1a19882   3.288   3.256   2.079  0.0174  0.2885  0.3725
 1074ESO    H1a19883   3.279   3.291   2.184 -3.3572 -1.3536 -0.5484
 1074ESO    H1a19884   3.377   3.186   2.071  2.8347 -0.0863  2.4765
 1074ESO    C2a19885   3.299   3.379   1.997  0.1514 -0.4938  0.1875
 1074ESO    H2a19886   3.374   3.437   2.044 -2.9492  0.4905  3.0423
 1074ESO    H2a19887   3.203   3.432   2.000 -3.2442 -0.0295  1.0080
 1074ESO    H2a19888   3.316   3.360   1.890 -2.7053 -1.7534  0.5882
 1075ESO     O119889   0.663   5.102   6.526  0.3862 -0.7156 -0.8399
 1075ESO     O119890   0.721   4.877   6.526  0.2232 -0.7631  0.2139
 1075ESO     O119891   0.729   5.003   6.316  0.4944  0.3575  0.1003
 1075ESO      S19892   0.738   5.000   6.459 -0.0679  0.2158 -0.0346
 1075ESO     O219893   0.887   5.046   6.491  0.2278 -0.1497  0.3913
 1075ESO    C1a19894   0.939   5.048   6.627 -0.2686  0.4475  0.2606
 1075ESO    H1a19895   1.031   5.115   6.631 -0.0405 -1.6324  0.3827
 1075ESO    H1a19896   0.867   5.083   6.699  2.1205  2.1111 -1.7128
 1075ESO    C2a19897   0.990   4.910   6.670 -0.8468  0.2056 -0.2727
 1075ESO    H2a19898   1.070   4.917   6.743  0.9906  1.0667  0.8582
 1075ESO    H2a19899   1.028   4.840   6.588  2.4203 -0.9356 -1.1411
 1075ESO    H2a19900   0.903   4.852   6.712 -2.1237  2.4667  2.3318
 1076ESO     O119901   4.952   2.515   5.242 -0.1765 -0.4919  0.1657
 1076ESO     O119902   4.774   2.661   5.317 -0.3865 -0.2298 -0.1363
 1076ESO     O119903   5.009   2.709   5.363 -0.0656 -0.2067 -0.0413
 1076ESO      S19904   4.911   2.651   5.274 -0.2442  0.0542  0.2764
 1076ESO     O219905   4.920   2.734   5.144 -0.3548 -0.4129 -0.2387
 1076ESO    C1a19906   4.898   2.875   5.169  0.1193 -0.9239  0.8072
 1076ESO    H1a19907   4.812   2.896   5.236  0.8943 -1.7770  0.8106
 1076ESO    H1a19908   4.985   2.924   5.205 -1.9739  2.4601 -0.3854
 1076ESO    C2a19909   4.868   2.916   5.028 -0.5776 -0.2524 -0.4592
 1076ESO    H2a19910   4.788   2.850   4.994  2.3083  0.7764  1.7310
 1076ESO    H2a19911   4.944   2.900   4.958 -1.7452 -0.0069 -1.1622
 1076ESO    H2a19912   4.828   3.015   5.020  0.0893  2.1063  0.9282
 1077ESO     O119913   5.848   3.479   0.042  0.4090  0.6556 -0.6308
 1077ESO     O119914   5.620   3.495  -0.039  0.1445 -0.2955 -0.4087
 1077ESO     O119915   5.748   3.690   0.015 -0.1057 -0.0027  0.8516
 1077ESO      S19916   5.750   3.555  -0.032  0.0152 -0.3430  0.1567
 1077ESO     O219917   5.795   3.562  -0.180  0.7297 -0.2296  0.0850
 1077ESO    C1a19918   5.706   3.618  -0.283  0.3842 -0.6561 -0.2783
 1077ESO    H1a19919   5.605   3.577  -0.286  0.9914 -1.8577 -1.5946
 1077ESO    H1a19920   5.715   3.723  -0.272  1.6545  1.0005  0.7910
 1077ESO    C2a19921   5.766   3.581  -0.420 -0.0774  0.1444 -0.4130
 1077ESO    H2a19922   5.704   3.620  -0.498  0.3013  1.4617 -0.7714
 1077ESO    H2a19923   5.768   3.471  -0.423 -0.5342 -0.3836 -1.4736
 1077ESO    H2a19924   5.871   3.621  -0.428  3.1526  1.7447 -1.5078
 1078ESO     O119925   1.238   4.240   2.614 -0.1186 -0.1109 -0.4494
 1078ESO     O119926   1.242   4.013   2.542 -0.1549  0.4105 -0.4690
 1078ESO     O119927   1.030   4.123   2.589  0.4630  0.2587  0.2025
 1078ESO      S19928   1.166   4.138   2.542  0.0842  0.1100  0.2403
 1078ESO     O219929   1.151   4.176   2.388 -0.1925 -0.0466 -0.0501
 1078ESO    C1a19930   1.272   4.193   2.309  0.4229  0.2089  0.0003
 1078ESO    H1a19931   1.340   4.267   2.356 -0.6038  0.0985 -1.8554
 1078ESO    H1a19932   1.315   4.098   2.280 -2.4414 -0.7655 -0.4044
 1078ESO    C2a19933   1.230   4.271   2.184 -0.3750 -0.0265  0.8620
 1078ESO    H2a19934   1.159   4.234   2.111 -1.7290  2.7108  2.8405
 1078ESO    H2a19935   1.326   4.300   2.138  1.6922 -0.8793  0.4353
 1078ESO    H2a19936   1.184   4.367   2.211 -3.6133 -2.5154  0.6415
 1079ESO     O119937   6.252   4.591   1.302 -0.0608 -0.3146  0.4353
 1079ESO     O119938   6.405   4.531   1.131 -0.0085 -0.0484 -0.1401
 1079ESO     O119939   6.170   4.501   1.106  0.0310  0.2013 -0.8566
 1079ESO      S19940   6.274   4.581   1.159 -0.4342 -0.2641 -0.2071
 1079ESO     O219941   6.261   4.729   1.099  0.1833 -0.3191  0.5265
 1079ESO    C1a19942   6.132   4.793   1.094  0.0878 -0.0924  0.1212
 1079ESO    H1a19943   6.101   4.811   0.989  2.3389  1.8351 -0.3895
 1079ESO    H1a19944   6.052   4.738   1.143  0.9345  1.0278 -0.1429
 1079ESO    C2a19945   6.148   4.921   1.167 -0.0514 -0.3583  0.3735
 1079ESO    H2a19946   6.077   4.934   1.254 -0.9526 -0.9917  1.7751
 1079ESO    H2a19947   6.133   4.993   1.086  0.1848 -2.8534 -3.4807
 1079ESO    H2a19948   6.248   4.938   1.206 -0.6082  1.7087  0.4344
 1080ESO     O119949   6.671   1.947   3.990  0.8245  0.2880  0.5912
 1080ESO     O119950   6.886   2.009   4.080 -0.2850 -0.5919 -0.4598
 1080ESO     O119951   6.879   1.896   3.867 -0.0626 -0.3160  0.3018
 1080ESO      S19952   6.812   1.985   3.962 -0.1541  0.1772 -0.5969
 1080ESO     O219953   6.794   2.127   3.905 -0.0358 -0.0735  0.6187
 1080ESO    C1a19954   6.905   2.191   3.834 -0.5803  1.3282 -0.5198
 1080ESO    H1a19955   6.948   2.265   3.903 -0.7530  0.2718 -1.4896
 1080ESO    H1a19956   6.985   2.115   3.816  0.6713 -1.0254  0.9559
 1080ESO    C2a19957   6.839   2.251   3.710  0.2559 -0.0882  0.5432
 1080ESO    H2a19958   6.921   2.289   3.645 -1.3068 -0.6958 -0.1192
 1080ESO    H2a19959   6.775   2.336   3.733  0.3045 -1.4669 -0.6020
 1080ESO    H2a19960   6.786   2.180   3.654 -0.7991  0.9586  0.0954
 1081ESO     O119961   2.733   4.230   5.959 -0.8126 -0.3244 -0.1626
 1081ESO     O119962   2.699   3.989   5.934 -0.3319 -0.6297  0.0014
 1081ESO     O119963   2.902   4.088   5.864  0.7637 -0.1542 -0.3592
 1081ESO      S19964   2.790   4.099   5.958 -0.4546  0.3332  0.0313
 1081ESO     O219965   2.854   4.061   6.096  0.5633  0.3397 -0.2522
 1081ESO    C1a19966   2.775   4.079   6.208  1.0113  0.0243  0.1066
 1081ESO    H1a19967   2.756   4.194   6.226 -2.4456  1.2653  2.6707
 1081ESO    H1a19968   2.676   4.031   6.191 -1.3003  0.2799  1.0704
 1081ESO    C2a19969   2.849   4.017   6.320  0.6154 -0.6605 -0.2969
 1081ESO    H2a19970   2.949   4.063   6.326 -2.0719  0.5500  0.8242
 1081ESO    H2a19971   2.857   3.906   6.319 -0.2948 -0.5234  2.2486
 1081ESO    H2a19972   2.802   4.029   6.417  0.5896 -2.2761  0.0989
 1082ESO     O119973   6.570   5.832   6.567 -0.4963 -0.2665 -0.3043
 1082ESO     O119974   6.392   5.978   6.604  0.0344  0.2454  0.4198
 1082ESO     O119975   6.411   5.878   6.391 -0.2911  0.0250 -0.2712
 1082ESO      S19976   6.435   5.864   6.530  0.3038  0.1766  0.0256
 1082ESO     O219977   6.340   5.754   6.580  0.4622 -0.1155 -0.2341
 1082ESO    C1a19978   6.354   5.620   6.518 -0.0890  0.5671  0.0195
 1082ESO    H1a19979   6.383   5.621   6.411  1.8561 -1.5488 -0.2430
 1082ESO    H1a19980   6.433   5.573   6.577  0.2538  1.4728  3.4562
 1082ESO    C2a19981   6.219   5.560   6.518 -0.0721 -0.0654 -0.3913
 1082ESO    H2a19982   6.225   5.468   6.461  0.3115 -0.9043  0.2820
 1082ESO    H2a19983   6.144   5.625   6.471  0.7099 -2.2059 -0.0647
 1082ESO    H2a19984   6.170   5.531   6.611 -2.3419  3.5390 -0.2803
 1083ESO     O119985   4.209   6.040   2.583 -0.1740  0.8341 -0.1839
 1083ESO     O119986   4.183   6.011   2.819 -0.1436 -0.6970 -0.2532
 1083ESO     O119987   4.055   5.871   2.681 -0.1622 -0.3366  0.7329
 1083ESO      S19988   4.179   5.948   2.688  0.1146  0.3847  0.3113
 1083ESO     O219989   4.308   5.850   2.677 -0.8134 -0.1609 -0.1578
 1083ESO    C1a19990   4.329   5.737   2.770 -0.2330  0.5134 -0.0712
 1083ESO    H1a19991   4.437   5.730   2.802  3.4395  2.1492  1.1286
 1083ESO    H1a19992   4.268   5.759   2.858  1.2781  0.4241 -0.5935
 1083ESO    C2a19993   4.280   5.617   2.700 -0.0576  0.0987  0.0891
 1083ESO    H2a19994   4.175   5.623   2.683  0.8746  2.3581 -1.4804
 1083ESO    H2a19995   4.299   5.538   2.767 -2.1884  2.0459  1.9933
 1083ESO    H2a19996   4.343   5.589   2.622  2.3372 -1.6738  1.4258
 1084ESO     O119997   1.630   3.622   1.997  0.0629  0.1283  0.0842
 1084ESO     O119998   1.693   3.632   2.226 -0.1659 -0.4835 -0.3389
 1084ESO     O119999   1.457   3.632   2.175  0.4945  0.3768 -0.7352
 1084ESO      S20000   1.591   3.591   2.137 -0.3078 -0.1761 -0.0223
 1084ESO     O220001   1.594   3.435   2.145 -0.1923  0.3626 -0.1108
 1084ESO    C1a20002   1.499   3.375   2.050 -0.2789 -0.0044 -0.1219
 1084ESO    H1a20003   1.388   3.404   2.069  2.1572  0.1935  0.5269
 1084ESO    H1a20004   1.534   3.400   1.949 -0.2700  1.1988 -0.8269
 1084ESO    C2a20005   1.513   3.224   2.076 -0.1108 -0.4818  0.5836
 1084ESO    H2a20006   1.619   3.218   2.105 -0.2540  0.7309  0.3800
 1084ESO    H2a20007   1.485   3.162   1.990  0.9632  0.0816 -1.0483
 1084ESO    H2a20008   1.462   3.181   2.167 -1.0316  1.6138  0.2642
 1085ESO     O120009   4.801   4.373   3.598  0.1866 -0.4160 -0.2017
 1085ESO     O120010   4.761   4.468   3.821 -0.0204 -0.4051 -0.3787
 1085ESO     O120011   4.838   4.240   3.797  0.3016 -1.3157  0.4115
 1085ESO      S20012   4.838   4.376   3.739  0.1752  0.1101 -0.3329
 1085ESO     O220013   4.986   4.414   3.751  0.1865 -0.1538  0.3916
 1085ESO    C1a20014   5.081   4.336   3.670 -1.1282 -0.0455 -0.4907
 1085ESO    H1a20015   5.044   4.237   3.648 -1.2215 -0.5934 -1.3540
 1085ESO    H1a20016   5.088   4.384   3.567 -1.5345 -1.4177 -0.2141
 1085ESO    C2a20017   5.199   4.340   3.759  0.0832 -0.2054  0.1404
 1085ESO    H2a20018   5.188   4.279   3.856 -0.3412 -1.8178  0.5287
 1085ESO    H2a20019   5.215   4.440   3.782  0.0538  2.5135  2.3135
 1085ESO    H2a20020   5.281   4.301   3.705 -0.4637 -1.4357  1.5759
 1086ESO     O120021   1.463   5.038   3.728  0.1956 -0.3807  0.1053
 1086ESO     O120022   1.352   5.213   3.859  0.3221 -0.1365 -0.2653
 1086ESO     O120023   1.519   5.270   3.704  0.0521 -0.7546  0.0553
 1086ESO      S20024   1.419   5.176   3.735  0.1897  0.0833 -0.1398
 1086ESO     O220025   1.312   5.200   3.612  0.2373 -0.1926 -0.0083
 1086ESO    C1a20026   1.186   5.133   3.609  0.1949 -0.2470 -0.0100
 1086ESO    H1a20027   1.168   5.103   3.502  2.5419 -2.2444 -2.1870
 1086ESO    H1a20028   1.188   5.041   3.674 -2.0959 -0.2944 -2.2637
 1086ESO    C2a20029   1.074   5.223   3.675 -0.6645  0.4018 -0.8186
 1086ESO    H2a20030   1.057   5.312   3.620 -1.2975 -1.2742 -0.8278
 1086ESO    H2a20031   1.103   5.254   3.772 -0.5282  1.6259  0.7159
 1086ESO    H2a20032   0.983   5.164   3.687 -1.4828 -1.1131 -0.5495
 1087ESO     O120033   0.239   3.002   2.052  0.0215  0.7257  0.3050
 1087ESO     O120034   0.367   3.149   2.200  0.2813  0.2063 -0.3525
 1087ESO     O120035   0.423   2.916   2.171  0.3561 -0.7620  0.0020
 1087ESO      S20036   0.367   3.031   2.108  0.0778 -0.2135  0.0403
 1087ESO     O220037   0.454   3.084   1.993 -0.3064  0.6314 -0.0102
 1087ESO    C1a20038   0.598   3.053   1.992 -0.6507  0.3294  1.3419
 1087ESO    H1a20039   0.648   3.143   1.937  1.3084  1.6659  1.9557
 1087ESO    H1a20040   0.637   3.039   2.090 -1.7380  3.1341  0.4863
 1087ESO    C2a20041   0.611   2.932   1.904  0.0011  0.0191 -0.0181
 1087ESO    H2a20042   0.566   2.853   1.965 -1.1313  0.3117 -1.4347
 1087ESO    H2a20043   0.711   2.918   1.878 -0.7349 -0.6108  2.4092
 1087ESO    H2a20044   0.551   2.934   1.814  1.0026 -0.3654  4.3335
 1088ESO     O120045   1.378   2.858   5.415 -0.8340  0.4482  0.3247
 1088ESO     O120046   1.368   3.077   5.323  0.3260 -0.6867 -0.3695
 1088ESO     O120047   1.211   3.006   5.497 -0.2837 -0.2628 -0.0839
 1088ESO      S20048   1.346   2.997   5.442 -0.2746 -0.0716  0.5684
 1088ESO     O220049   1.441   3.051   5.549 -0.0436 -0.1918 -0.1876
 1088ESO    C1a20050   1.579   3.094   5.526 -0.3693  0.8596  0.0618
 1088ESO    H1a20051   1.637   3.035   5.595  2.2085  0.4185 -0.4706
 1088ESO    H1a20052   1.610   3.073   5.423 -0.0877  0.6885  0.3846
 1088ESO    C2a20053   1.594   3.245   5.547  0.4122  0.3886 -0.4674
 1088ESO    H2a20054   1.661   3.302   5.482 -0.0000 -0.3573  0.0151
 1088ESO    H2a20055   1.630   3.256   5.649 -2.4615  0.7871 -0.7293
 1088ESO    H2a20056   1.499   3.297   5.534 -0.9502  1.0889  2.0815
 1089ESO     O120057   1.876   6.118   1.354 -0.2083  0.6730 -0.1281
 1089ESO     O120058   1.848   5.990   1.151  0.5479  0.0324 -0.2674
 1089ESO     O120059   1.659   6.070   1.270  0.5346  0.5662  0.5213
 1089ESO      S20060   1.796   6.093   1.239  0.0195  0.3414 -0.1628
 1089ESO     O220061   1.797   6.235   1.164 -0.4036 -0.0587  0.0989
 1089ESO    C1a20062   1.688   6.334   1.171  0.1550 -0.4202  0.9466
 1089ESO    H1a20063   1.716   6.404   1.086  2.7105 -0.9784 -0.3730
 1089ESO    H1a20064   1.590   6.291   1.154 -3.6161  2.4849  0.9338
 1089ESO    C2a20065   1.708   6.404   1.303  0.2006 -0.3831 -0.7038
 1089ESO    H2a20066   1.641   6.479   1.309  1.6046  0.4002  1.2296
 1089ESO    H2a20067   1.805   6.450   1.311 -0.6190 -0.0459 -1.2423
 1089ESO    H2a20068   1.691   6.340   1.390  0.9796  1.5596 -1.9495
 1090ESO     O120069   0.654   3.145   4.153 -0.3468  0.4039  0.0666
 1090ESO     O120070   0.476   3.248   4.280 -0.2230  0.4039 -0.0046
 1090ESO     O120071   0.499   3.016   4.277  0.7223 -0.1473 -0.9980
 1090ESO      S20072   0.573   3.140   4.268 -0.0714 -0.2650  0.2459
 1090ESO     O220073   0.674   3.143   4.387  0.4161 -0.2069 -0.0002
 1090ESO    C1a20074   0.727   3.265   4.443  0.1033  0.0959  0.1449
 1090ESO    H1a20075   0.834   3.259   4.431 -1.1435 -0.2289 -1.1061
 1090ESO    H1a20076   0.695   3.356   4.388  0.0570  0.2286 -0.1115
 1090ESO    C2a20077   0.693   3.275   4.586  0.0907  0.0557 -0.5973
 1090ESO    H2a20078   0.779   3.310   4.650 -0.5458  0.5753  0.7682
 1090ESO    H2a20079   0.662   3.176   4.627 -0.8439 -1.4056  2.8079
 1090ESO    H2a20080   0.604   3.328   4.605 -1.6575 -0.4250 -0.3768
 1091ESO     O120081   0.250   6.235   0.727 -0.1248 -0.2140  0.1604
 1091ESO     O120082   0.434   6.296   0.862  0.1139  0.1290  0.4713
 1091ESO     O120083   0.460   6.123   0.694  0.4727  0.0822  0.1023
 1091ESO      S20084   0.393   6.242   0.736 -0.6641  0.0554  0.0773
 1091ESO     O220085   0.432   6.348   0.623 -0.1235  0.1463 -0.5541
 1091ESO    C1a20086   0.392   6.485   0.646 -0.2288 -0.5528 -0.2439
 1091ESO    H1a20087   0.319   6.510   0.570  1.7415 -0.5589 -1.0023
 1091ESO    H1a20088   0.343   6.497   0.743 -1.0964 -1.9331 -2.4539
 1091ESO    C2a20089   0.517   6.566   0.628 -0.3171  0.4979 -0.5740
 1091ESO    H2a20090   0.496   6.666   0.586 -2.0445 -0.1852 -0.6885
 1091ESO    H2a20091   0.579   6.526   0.546  0.7335 -1.0198  0.2834
 1091ESO    H2a20092   0.583   6.577   0.715  1.7843  0.6518  2.7388
 1092ESO     O120093   0.969   1.139   1.036 -0.0756 -0.2773  0.1270
 1092ESO     O120094   0.907   0.919   1.119  0.0213  0.2674 -0.0255
 1092ESO     O120095   1.073   1.049   1.240 -0.2201 -0.3391 -0.7947
 1092ESO      S20096   0.958   1.052   1.149 -0.1236  0.2937 -0.0654
 1092ESO     O220097   0.845   1.118   1.236 -0.3557  0.1248  1.2465
 1092ESO    C1a20098   0.817   1.064   1.372 -0.7169  0.2960  0.4443
 1092ESO    H1a20099   0.829   0.959   1.361  0.9609  0.2667 -0.3167
 1092ESO    H1a20100   0.877   1.100   1.451 -1.4401 -0.7969  0.7980
 1092ESO    C2a20101   0.667   1.082   1.387 -0.0028 -0.3431  0.1966
 1092ESO    H2a20102   0.622   1.024   1.469  3.0682 -0.4678 -2.4037
 1092ESO    H2a20103   0.609   1.057   1.295 -2.6900 -0.7130 -0.1626
 1092ESO    H2a20104   0.652   1.186   1.409 -0.2240  0.5962 -1.6215
 1093ESO     O120105   5.300   5.978   6.277 -0.0831 -0.3800  0.1379
 1093ESO     O120106   5.123   6.063   6.146 -0.2502 -0.0728 -0.5751
 1093ESO     O120107   5.246   5.866   6.076 -0.0903 -0.0102  0.3697
 1093ESO      S20108   5.199   5.949   6.184 -0.0477  0.2217 -0.1434
 1093ESO     O220109   5.107   5.849   6.258 -0.0883  0.1925  0.3138
 1093ESO    C1a20110   4.996   5.886   6.340 -0.3319  0.4292  0.2178
 1093ESO    H1a20111   5.002   5.840   6.436 -0.8530  0.8092 -0.7141
 1093ESO    H1a20112   5.000   5.993   6.355  1.8222  3.5144  2.3308
 1093ESO    C2a20113   4.873   5.848   6.264  0.8806 -0.6432  0.1801
 1093ESO    H2a20114   4.869   5.924   6.185  0.2390  1.3560 -0.9318
 1093ESO    H2a20115   4.787   5.876   6.321  0.2265 -0.1385 -3.5231
 1093ESO    H2a20116   4.882   5.759   6.204 -1.2874 -0.1090 -1.2368
 1094ESO     O120117   4.615   0.846   3.970  0.1507  0.7194  0.1222
 1094ESO     O120118   4.833   0.798   3.879 -0.3486 -0.3816  0.7313
 1094ESO     O120119   4.658   0.901   3.745 -0.2883  0.8195 -0.2960
 1094ESO      S20120   4.716   0.884   3.876  0.1119 -0.5320 -0.0681
 1094ESO     O220121   4.767   1.038   3.904 -0.4006  0.3852 -0.0342
 1094ESO    C1a20122   4.846   1.056   4.024  0.5101 -0.6822 -0.4269
 1094ESO    H1a20123   4.793   1.011   4.107  1.4967  0.8760  1.6367
 1094ESO    H1a20124   4.939   1.007   4.025 -0.4325 -1.2569 -1.5285
 1094ESO    C2a20125   4.863   1.207   4.037 -0.2139  0.0510  0.5800
 1094ESO    H2a20126   4.943   1.238   3.968 -0.2322  1.2841 -0.2529
 1094ESO    H2a20127   4.893   1.231   4.134 -0.4134 -0.6619 -0.2896
 1094ESO    H2a20128   4.770   1.262   4.018 -2.0989 -0.0393 -0.7596
 1095ESO     O120129   4.861   5.943   6.619 -0.4078  0.3537 -0.1898
 1095ESO     O120130   4.788   5.792   6.789  0.6738  0.1589  0.3652
 1095ESO     O120131   4.989   5.754   6.682 -0.8697 -0.1657 -0.2895
 1095ESO      S20132   4.898   5.854   6.724 -0.0818  0.3549 -0.0100
 1095ESO     O220133   4.972   5.946   6.826  0.5240  0.4668 -0.3692
 1095ESO    C1a20134   5.053   5.876   6.924  0.0217  0.1669 -0.1089
 1095ESO    H1a20135   4.985   5.804   6.971  0.1600  1.8282  2.3785
 1095ESO    H1a20136   5.135   5.829   6.874 -1.5604  0.0403  1.1190
 1095ESO    C2a20137   5.089   5.985   7.026 -0.6535 -0.7027 -0.6327
 1095ESO    H2a20138   5.145   6.058   6.975 -0.3156 -1.2959 -2.1521
 1095ESO    H2a20139   5.148   5.934   7.098 -0.4580 -2.7807 -1.0372
 1095ESO    H2a20140   4.996   6.023   7.070 -1.0291  3.3914  1.5311
 1096ESO     O120141   2.936   0.072   2.151  0.7497  0.1859  0.0143
 1096ESO     O120142   3.127  -0.080   2.201  0.3039  0.1920 -0.1673
 1096ESO     O120143   3.119   0.048   1.999  0.4664  0.0660 -0.3199
 1096ESO      S20144   3.077   0.043   2.136 -0.1968  0.2166 -0.1596
 1096ESO     O220145   3.152   0.157   2.207 -0.8726  0.4099 -0.5165
 1096ESO    C1a20146   3.138   0.169   2.351 -0.7530  0.7310  0.1033
 1096ESO    H1a20147   3.073   0.093   2.390  1.7967 -0.6756  0.9872
 1096ESO    H1a20148   3.239   0.152   2.388 -4.2803 -0.4198  2.3462
 1096ESO    C2a20149   3.103   0.312   2.389 -1.4460  0.3817  0.1225
 1096ESO    H2a20150   2.998   0.324   2.366  0.1391  0.9683 -1.7702
 1096ESO    H2a20151   3.153   0.387   2.334  1.1523  4.6144  1.9924
 1096ESO    H2a20152   3.124   0.334   2.491  1.3811 -0.1407  0.2572
 1097ESO     O120153   4.787   0.088   2.900  0.3480  0.5759  0.0846
 1097ESO     O120154   4.616  -0.002   2.768  0.5561  0.2050 -0.2337
 1097ESO     O120155   4.783   0.150   2.670 -0.0179  0.6491 -0.6458
 1097ESO      S20156   4.751   0.046   2.770 -0.1729  0.0318  0.3612
 1097ESO     O220157   4.841  -0.084   2.737  0.3930 -0.6881  0.9986
 1097ESO    C1a20158   4.983  -0.068   2.762 -0.1384  0.5942 -0.3779
 1097ESO    H1a20159   5.035  -0.004   2.697 -0.2884 -1.1686  0.2060
 1097ESO    H1a20160   4.998  -0.041   2.871 -2.8765 -0.4790 -0.4221
 1097ESO    C2a20161   5.048  -0.205   2.738 -0.1737 -0.0270 -0.1067
 1097ESO    H2a20162   5.010  -0.290   2.803  0.5683 -1.4435  1.2727
 1097ESO    H2a20163   5.155  -0.206   2.746 -0.4554  0.9693 -1.9189
 1097ESO    H2a20164   5.033  -0.236   2.639  2.0900  2.0590  4.1813
 1098ESO     O120165   5.191   5.976   1.066 -0.1928 -0.4200  0.3763
 1098ESO     O120166   5.061   6.080   0.899 -0.3748 -0.0617  0.7793
 1098ESO     O120167   5.134   5.848   0.872 -0.0541  0.3854 -0.4410
 1098ESO      S20168   5.097   5.955   0.962 -0.1101 -0.1337 -0.0996
 1098ESO     O220169   4.959   5.915   1.021 -0.2788 -0.4393 -0.3866
 1098ESO    C1a20170   4.943   5.782   1.082 -0.5685  0.0535  0.0070
 1098ESO    H1a20171   4.980   5.703   1.014  0.2845 -0.9852 -0.3867
 1098ESO    H1a20172   4.987   5.782   1.183 -1.0419  0.6222  0.9382
 1098ESO    C2a20173   4.790   5.762   1.111  0.1355 -0.0871 -0.0704
 1098ESO    H2a20174   4.737   5.761   1.014  1.4718  1.3544  1.3030
 1098ESO    H2a20175   4.748   5.842   1.170  0.0165 -1.2816  2.8890
 1098ESO    H2a20176   4.780   5.673   1.175 -1.0641 -2.8007  1.4549
 1099ESO     O120177   2.174   6.563   5.763 -0.6488 -0.1195  0.2496
 1099ESO     O120178   2.114   6.442   5.955 -0.4886 -0.2784  0.2140
 1099ESO     O120179   2.344   6.529   5.935  0.1051 -0.3611  0.3000
 1099ESO      S20180   2.202   6.544   5.906  0.2951 -0.0244 -0.1959
 1099ESO     O220181   2.159   6.671   5.987 -0.2619 -0.1331 -0.0986
 1099ESO    C1a20182   2.181   6.697   6.129 -0.6292 -0.4530 -0.6416
 1099ESO    H1a20183   2.090   6.669   6.190 -2.0875 -0.7101  2.9384
 1099ESO    H1a20184   2.272   6.634   6.152 -0.4480  1.0731 -0.9046
 1099ESO    C2a20185   2.237   6.832   6.138  0.3243 -0.6285  0.5806
 1099ESO    H2a20186   2.164   6.901   6.101 -1.4701 -0.3015 -2.6835
 1099ESO    H2a20187   2.331   6.846   6.091 -1.6317  1.2926  2.5972
 1099ESO    H2a20188   2.256   6.853   6.245 -3.3602  2.6629 -1.4066
 1100ESO     O120189   4.715   5.552   2.489 -0.1449 -0.2963 -0.3485
 1100ESO     O120190   4.804   5.354   2.596 -0.3963  0.3513  0.4533
 1100ESO     O120191   4.566   5.387   2.577 -0.7323  0.5478 -0.7090
 1100ESO      S20192   4.696   5.409   2.518  0.3214  0.1331  0.0209
 1100ESO     O220193   4.697   5.337   2.379 -0.4186  0.4552 -0.3606
 1100ESO    C1a20194   4.679   5.194   2.383  0.2143 -0.9536  0.4439
 1100ESO    H1a20195   4.758   5.147   2.436 -0.6715  4.5182  0.3522
 1100ESO    H1a20196   4.586   5.180   2.425  1.0240 -0.1036  0.4211
 1100ESO    C2a20197   4.691   5.155   2.238 -0.2206  0.0788 -0.2662
 1100ESO    H2a20198   4.778   5.205   2.197  0.6969  1.1734 -1.6121
 1100ESO    H2a20199   4.608   5.178   2.179  1.4525 -0.0214 -0.9361
 1100ESO    H2a20200   4.713   5.049   2.234 -0.9337 -0.7889 -1.6888
 1101ESO     O120201   5.647   4.039   1.070 -0.2203 -0.7314  0.3754
 1101ESO     O120202   5.484   4.163   1.198  0.5162 -0.2494 -0.3982
 1101ESO     O120203   5.470   3.923   1.169 -0.4453  0.7814 -0.2975
 1101ESO      S20204   5.556   4.038   1.179  0.3296  0.2026  0.0585
 1101ESO     O220205   5.634   4.021   1.313  0.0875  0.1702 -0.4488
 1101ESO    C1a20206   5.756   3.941   1.325 -0.1585  0.2681 -0.0895
 1101ESO    H1a20207   5.736   3.837   1.299  0.6888 -1.2827  4.1794
 1101ESO    H1a20208   5.834   3.984   1.259 -3.1287  0.2336  0.9457
 1101ESO    C2a20209   5.803   3.940   1.466  0.1823 -0.0846 -0.5365
 1101ESO    H2a20210   5.896   3.881   1.496  1.4192 -0.5085 -0.5723
 1101ESO    H2a20211   5.719   3.914   1.532 -2.1883  1.7730  0.9252
 1101ESO    H2a20212   5.829   4.040   1.504  1.7157 -0.0206 -1.7360
 1102ESO     O120213   2.023   6.269   0.576 -0.2448 -0.3833  0.1499
 1102ESO     O120214   2.182   6.398   0.453  0.0516 -0.0827 -0.2037
 1102ESO     O120215   2.204   6.367   0.688  0.2945  0.0230 -0.6315
 1102ESO      S20216   2.160   6.313   0.565  0.0717 -0.0759  0.0628
 1102ESO     O220217   2.240   6.178   0.536 -0.3521  0.1291 -0.0271
 1102ESO    C1a20218   2.229   6.069   0.622 -0.1809  0.3133  0.7703
 1102ESO    H1a20219   2.178   6.093   0.713 -2.7145 -0.2480 -2.3125
 1102ESO    H1a20220   2.167   5.994   0.573 -2.4416  0.2044 -2.1419
 1102ESO    C2a20221   2.368   6.019   0.664  0.5462  0.1579  0.1923
 1102ESO    H2a20222   2.363   5.923   0.712 -1.3863 -2.8809 -0.8874
 1102ESO    H2a20223   2.417   6.081   0.741 -1.7334  0.3968  0.5355
 1102ESO    H2a20224   2.431   6.002   0.576 -2.3830  0.7866 -0.9306
 1103ESO     O120225   4.431   4.073   2.287 -0.0716 -0.1065 -0.4703
 1103ESO     O120226   4.250   4.123   2.438  0.5462 -0.3501  0.2149
 1103ESO     O120227   4.373   3.927   2.469  0.0136 -0.0787  0.0757
 1103ESO      S20228   4.378   4.061   2.421  0.0364  0.1737  0.2487
 1103ESO     O220229   4.471   4.137   2.521  0.6152  0.2407  0.0202
 1103ESO    C1a20230   4.497   4.272   2.473 -0.1125  0.7144  0.4718
 1103ESO    H1a20231   4.604   4.281   2.477 -0.0501 -3.6856  0.5721
 1103ESO    H1a20232   4.461   4.279   2.371  0.4191 -0.9019 -1.1545
 1103ESO    C2a20233   4.445   4.377   2.568 -0.1875  0.7000  0.4857
 1103ESO    H2a20234   4.482   4.372   2.666  0.6083 -0.9205  3.4013
 1103ESO    H2a20235   4.330   4.373   2.562 -2.8353  2.6581 -2.7020
 1103ESO    H2a20236   4.484   4.472   2.517 -2.4517  1.5109 -2.6869
 1104ESO     O120237   4.334   0.190   0.696 -0.3879  0.3957 -0.0779
 1104ESO     O120238   4.515   0.128   0.858  0.0992  0.2305 -0.1979
 1104ESO     O120239   4.367  -0.037   0.770 -0.3305 -0.5899 -0.3184
 1104ESO      S20240   4.428   0.090   0.747  0.2767  0.4188  0.0882
 1104ESO     O220241   4.529   0.063   0.626 -0.2787  0.1996  0.1739
 1104ESO    C1a20242   4.610   0.178   0.604 -0.2293  0.0981 -0.2210
 1104ESO    H1a20243   4.579   0.237   0.511  0.9657 -1.3450 -1.7047
 1104ESO    H1a20244   4.615   0.245   0.690 -0.6443 -0.7369  1.6020
 1104ESO    C2a20245   4.745   0.111   0.594  0.2418  0.3478  0.0502
 1104ESO    H2a20246   4.748   0.040   0.509 -0.0012 -3.3975  0.6895
 1104ESO    H2a20247   4.767   0.052   0.684  1.8691  1.9107  1.5223
 1104ESO    H2a20248   4.828   0.177   0.591 -0.0764 -2.9296 -0.1075
 1105ESO     O120249   2.380   5.113   4.240  0.3825 -0.2385 -0.1953
 1105ESO     O120250   2.259   4.933   4.144  0.3722  0.3298 -0.6209
 1105ESO     O120251   2.400   5.076   4.005  0.4321 -0.5879 -0.3651
 1105ESO      S20252   2.375   5.016   4.135  0.1518  0.4031  0.1660
 1105ESO     O220253   2.491   4.922   4.169 -0.1640  0.0038  0.4204
 1105ESO    C1a20254   2.509   4.793   4.105 -0.0689  0.1292  0.0395
 1105ESO    H1a20255   2.450   4.721   4.160 -1.2172  0.1464 -0.7741
 1105ESO    H1a20256   2.462   4.796   4.005  3.7172  0.5768  0.2237
 1105ESO    C2a20257   2.663   4.769   4.099 -0.2206  0.5033 -0.3213
 1105ESO    H2a20258   2.686   4.669   4.063  0.7241  2.5148 -0.4491
 1105ESO    H2a20259   2.704   4.790   4.201  0.4880 -0.7606 -1.9745
 1105ESO    H2a20260   2.723   4.845   4.042  3.3993  1.6002 -0.0303
 1106ESO     O120261   1.425   0.677   3.507 -0.3040 -0.4781 -0.3824
 1106ESO     O120262   1.610   0.809   3.571 -0.6172  0.1489 -0.2833
 1106ESO     O120263   1.561   0.763   3.338  0.2395  0.4438 -0.2287
 1106ESO      S20264   1.508   0.784   3.471 -0.2669  0.0756 -0.4930
 1106ESO     O220265   1.420   0.913   3.474 -0.1725  0.1653  0.0302
 1106ESO    C1a20266   1.309   0.892   3.379 -0.2925 -0.0484  0.3789
 1106ESO    H1a20267   1.333   0.833   3.295 -0.0547  1.5809 -0.8207
 1106ESO    H1a20268   1.224   0.855   3.431  1.8392 -0.1674 -0.6110
 1106ESO    C2a20269   1.280   1.034   3.332  0.1146 -0.2444 -0.1865
 1106ESO    H2a20270   1.362   1.097   3.351  1.6895 -1.9040  2.6741
 1106ESO    H2a20271   1.191   1.073   3.383 -0.9634  1.9380  1.7436
 1106ESO    H2a20272   1.261   1.026   3.229  2.1174  0.1125 -0.0328
 1107ESO     O120273   3.503   3.123   0.223 -0.5478 -0.1812 -0.1653
 1107ESO     O120274   3.271   3.110   0.201 -0.1272  0.1138  0.7891
 1107ESO     O120275   3.402   3.107   0.006  0.2148 -0.1435  0.1327
 1107ESO      S20276   3.394   3.077   0.144 -0.1327  0.0265  0.1636
 1107ESO     O220277   3.402   2.927   0.152  0.1854  0.3863  0.0385
 1107ESO    C1a20278   3.406   2.859   0.279 -0.3499 -0.6168  0.6796
 1107ESO    H1a20279   3.503   2.876   0.322 -0.0646 -1.1499  1.0525
 1107ESO    H1a20280   3.328   2.903   0.340 -0.2801  1.0584 -3.1433
 1107ESO    C2a20281   3.398   2.707   0.256  0.3596  0.1928  0.0052
 1107ESO    H2a20282   3.490   2.665   0.212  0.6284  0.4061  1.5358
 1107ESO    H2a20283   3.321   2.686   0.186 -1.7930 -0.0096 -2.1118
 1107ESO    H2a20284   3.392   2.650   0.348  1.5623 -1.2533 -1.1650
 1108ESO     O120285   3.407   5.307   1.462  0.0458 -0.2245 -0.0749
 1108ESO     O120286   3.276   5.479   1.393  0.3686  0.1584 -0.1602
 1108ESO     O120287   3.301   5.432   1.626  0.0560  0.5937 -0.2898
 1108ESO      S20288   3.359   5.437   1.496 -0.0767 -0.1847 -0.0236
 1108ESO     O220289   3.483   5.539   1.505  0.2195  0.5286 -0.2711
 1108ESO    C1a20290   3.556   5.558   1.381  0.2865 -0.0071 -0.4514
 1108ESO    H1a20291   3.642   5.486   1.378  3.0175 -0.4686 -0.7651
 1108ESO    H1a20292   3.489   5.542   1.292  2.9040  5.2976 -2.0944
 1108ESO    C2a20293   3.619   5.691   1.384  0.1163 -0.3135 -1.3127
 1108ESO    H2a20294   3.700   5.690   1.458  0.8394 -2.8443 -2.7598
 1108ESO    H2a20295   3.551   5.773   1.397  1.0756  0.2145 -0.6573
 1108ESO    H2a20296   3.668   5.706   1.288  0.8001 -0.4862  0.1677
 1109ESO     O120297   4.548   0.914   5.880  0.3321 -0.0937 -0.4459
 1109ESO     O120298   4.365   0.906   5.718  0.2645 -0.2929 -0.5010
 1109ESO     O120299   4.570   0.794   5.675 -0.2424  0.7448 -0.1736
 1109ESO      S20300   4.478   0.839   5.777 -0.1775 -0.0444 -0.2464
 1109ESO     O220301   4.425   0.711   5.844 -0.0000  0.4598 -0.1239
 1109ESO    C1a20302   4.336   0.721   5.959 -0.4986  0.0561  0.3607
 1109ESO    H1a20303   4.346   0.831   5.990 -0.4541 -0.0536  2.4634
 1109ESO    H1a20304   4.238   0.683   5.928  1.0908 -0.9448 -0.1435
 1109ESO    C2a20305   4.384   0.647   6.076 -0.1094  0.3942  0.5428
 1109ESO    H2a20306   4.317   0.672   6.158  1.8400 -0.8079  0.5477
 1109ESO    H2a20307   4.480   0.678   6.100 -2.7956  2.9206 -0.9322
 1109ESO    H2a20308   4.386   0.542   6.067  1.4148 -0.4978 -3.4649
 1110ESO     O120309   6.192   5.707   1.543 -0.0950 -0.2017 -0.3185
 1110ESO     O120310   6.420   5.758   1.598  0.5371  0.2219 -0.7183
 1110ESO     O120311   6.355   5.708   1.369  0.2643  0.2307 -0.4930
 1110ESO      S20312   6.316   5.761   1.496 -0.7091 -0.0236 -0.0912
 1110ESO     O220313   6.278   5.911   1.470  0.5185 -0.2463  0.3394
 1110ESO    C1a20314   6.266   6.003   1.581  0.5871 -0.1872 -0.2121
 1110ESO    H1a20315   6.165   6.055   1.569  0.7916 -1.7606 -4.8029
 1110ESO    H1a20316   6.274   5.953   1.675  1.1841  4.3296  2.0496
 1110ESO    C2a20317   6.388   6.093   1.573  0.3917  0.1199 -0.0300
 1110ESO    H2a20318   6.382   6.180   1.641  0.1584 -0.2553 -2.4332
 1110ESO    H2a20319   6.415   6.130   1.471 -1.6516  3.0717 -1.2119
 1110ESO    H2a20320   6.476   6.044   1.616  0.8684  0.1835 -0.1020
 1111ESO     O120321   6.461   5.067   1.902 -0.4609 -0.5726 -0.3285
 1111ESO     O120322   6.234   5.085   1.853  0.7223 -0.4286  0.0102
 1111ESO     O120323   6.308   5.032   2.077  0.1552 -0.1637  0.3038
 1111ESO      S20324   6.333   5.102   1.952  0.0602  0.0736 -0.2577
 1111ESO     O220325   6.337   5.261   1.978  0.0758 -0.1463 -0.2456
 1111ESO    C1a20326   6.245   5.364   1.926  0.1765  0.9946  0.4352
 1111ESO    H1a20327   6.145   5.322   1.915 -1.2246 -0.4880 -1.3579
 1111ESO    H1a20328   6.242   5.439   2.001  0.5023 -2.9843  1.1729
 1111ESO    C2a20329   6.294   5.418   1.787  0.1202 -0.3600 -0.0098
 1111ESO    H2a20330   6.279   5.342   1.710 -0.9732 -3.4989  0.0466
 1111ESO    H2a20331   6.403   5.451   1.790  1.4621  2.7470  0.4329
 1111ESO    H2a20332   6.228   5.501   1.767 -3.1943 -2.2431  0.2163
 1112ESO     O120333   1.211   2.444   6.063  0.0244 -0.2555  0.2658
 1112ESO     O120334   1.168   2.471   5.832 -0.0285 -0.1919  0.0392
 1112ESO     O120335   1.384   2.412   5.912 -0.3731  0.3870  0.0577
 1112ESO      S20336   1.244   2.401   5.932  0.2002 -0.3356  0.3633
 1112ESO     O220337   1.218   2.248   5.932 -0.3049  0.6827  0.2840
 1112ESO    C1a20338   1.083   2.202   5.916 -0.1829 -0.0092  0.1226
 1112ESO    H1a20339   1.021   2.280   5.947  1.7234  0.2791 -2.2119
 1112ESO    H1a20340   1.075   2.182   5.809 -0.7097  2.4800  0.2773
 1112ESO    C2a20341   1.068   2.079   5.996 -0.0303  0.2828  0.1505
 1112ESO    H2a20342   1.157   2.018   5.988  0.1568 -0.1894  1.3766
 1112ESO    H2a20343   0.983   2.016   5.961 -1.1280 -0.5902 -0.5853
 1112ESO    H2a20344   1.057   2.101   6.105 -1.3111 -3.4128  2.3292
 1113ESO     O120345   1.118   1.128   5.298 -0.0778 -0.1965  0.2080
 1113ESO     O120346   1.172   1.358   5.234  0.2236  0.7508  0.0717
 1113ESO     O120347   1.124   1.189   5.068  0.1330  0.8859 -0.5899
 1113ESO      S20348   1.099   1.235   5.204 -0.3267  0.1616 -0.4507
 1113ESO     O220349   0.950   1.286   5.218 -0.1369 -0.1651  0.9813
 1113ESO    C1a20350   0.846   1.189   5.227  0.5623 -0.2998 -0.3780
 1113ESO    H1a20351   0.869   1.103   5.162 -1.5853 -0.4638 -0.0145
 1113ESO    H1a20352   0.837   1.167   5.333 -0.2279 -1.4417 -2.0203
 1113ESO    C2a20353   0.723   1.257   5.178 -0.0218 -0.0373  0.1057
 1113ESO    H2a20354   0.625   1.220   5.211 -0.1055 -0.3452  0.0052
 1113ESO    H2a20355   0.727   1.270   5.072  0.1781 -0.7938 -0.0724
 1113ESO    H2a20356   0.723   1.357   5.224  1.1397 -0.8257  2.6688
 1114ESO     O120357   6.146   3.475   5.183 -0.2259  0.0390 -0.3953
 1114ESO     O120358   6.001   3.452   4.989 -0.6769  0.4209  0.0136
 1114ESO     O120359   6.226   3.375   4.982 -0.2517  0.2857 -0.6677
 1114ESO      S20360   6.113   3.398   5.066  0.0459 -0.4799  0.0738
 1114ESO     O220361   6.067   3.254   5.121 -0.3845 -0.1253  0.3760
 1114ESO    C1a20362   6.177   3.154   5.157 -0.2699 -0.0932 -0.9129
 1114ESO    H1a20363   6.265   3.159   5.088 -2.0885 -1.7867  1.4223
 1114ESO    H1a20364   6.213   3.164   5.262  1.5561 -1.6011 -0.4488
 1114ESO    C2a20365   6.108   3.022   5.143  0.2216 -0.1175 -0.4581
 1114ESO    H2a20366   6.067   2.983   5.235  0.8396  1.3124  2.8452
 1114ESO    H2a20367   6.183   2.945   5.112 -1.3092 -0.1568 -0.8765
 1114ESO    H2a20368   6.035   3.018   5.062 -2.7771 -0.2930 -2.4680
 1115ESO     O120369   5.141   4.152   5.356  0.1447 -0.4855  0.1549
 1115ESO     O120370   5.091   4.382   5.325 -0.2279 -0.3155 -0.2091
 1115ESO     O120371   5.138   4.244   5.133 -0.0915  0.4197  0.3472
 1115ESO      S20372   5.087   4.249   5.266 -0.0811 -0.3091  0.3440
 1115ESO     O220373   4.937   4.202   5.261  0.0862  0.0968  0.2044
 1115ESO    C1a20374   4.838   4.210   5.358 -0.0432 -0.5241 -0.1469
 1115ESO    H1a20375   4.882   4.191   5.451  2.3629  1.8723  0.7647
 1115ESO    H1a20376   4.796   4.317   5.354 -3.4254 -1.6627  0.6404
 1115ESO    C2a20377   4.719   4.122   5.331  1.0345 -0.3614 -0.3006
 1115ESO    H2a20378   4.690   4.105   5.233  3.7698  0.0742 -1.0791
 1115ESO    H2a20379   4.627   4.160   5.386  1.2333  0.3409 -3.0941
 1115ESO    H2a20380   4.745   4.029   5.380  0.2504  1.8230  2.0870
 1116ESO     O120381   2.571   3.781   4.728 -0.1045 -0.3885  0.0193
 1116ESO     O120382   2.576   4.005   4.820 -0.0243  0.0035  0.7555
 1116ESO     O120383   2.716   3.952   4.635  0.5213  0.4931  0.0828
 1116ESO      S20384   2.591   3.924   4.701  0.1102  0.0781  0.1866
 1116ESO     O220385   2.475   3.968   4.612  0.3085 -0.6632 -0.0080
 1116ESO    C1a20386   2.480   3.919   4.473 -0.3006  0.4107  0.0115
 1116ESO    H1a20387   2.541   3.987   4.417  1.4673 -0.8946  2.4378
 1116ESO    H1a20388   2.526   3.817   4.471 -0.5534 -2.3470  0.2416
 1116ESO    C2a20389   2.341   3.931   4.408  0.3765 -0.3347  0.5898
 1116ESO    H2a20390   2.285   4.011   4.451 -0.6389  1.6274 -0.1675
 1116ESO    H2a20391   2.294   3.834   4.419 -3.7627  1.7399 -3.0058
 1116ESO    H2a20392   2.354   3.950   4.310 -0.7432  0.0797  1.5896
 1117ESO     O120393   0.997   2.964   1.294 -0.4212 -0.1458  0.0050
 1117ESO     O120394   0.909   2.964   1.064  0.1837 -0.1366  0.4990
 1117ESO     O120395   0.985   3.177   1.174  0.3577  0.2364 -0.2069
 1117ESO      S20396   0.994   3.033   1.162 -0.2209  0.0960  0.7030
 1117ESO     O220397   1.140   3.029   1.104 -0.2014 -0.0033  0.4048
 1117ESO    C1a20398   1.198   2.892   1.090  0.3201 -0.4820 -0.4836
 1117ESO    H1a20399   1.132   2.815   1.131 -1.6604 -0.6342 -1.1277
 1117ESO    H1a20400   1.200   2.868   0.991  0.2801 -0.3935  1.9679
 1117ESO    C2a20401   1.333   2.912   1.159  0.0703  0.5961  0.1275
 1117ESO    H2a20402   1.325   2.962   1.259  1.7348 -0.0114 -2.1200
 1117ESO    H2a20403   1.406   2.971   1.107  1.8102 -0.1836  1.4391
 1117ESO    H2a20404   1.378   2.813   1.162 -0.4706  2.6973 -1.9072
 1118ESO     O120405   2.958   5.752   5.542 -0.2169 -0.2558 -0.1500
 1118ESO     O120406   3.024   5.705   5.320 -0.1209 -0.1620  0.5509
 1118ESO     O120407   2.832   5.852   5.356  0.3564 -0.4937 -0.1390
 1118ESO      S20408   2.955   5.800   5.404 -0.2818 -0.2202 -0.0494
 1118ESO     O220409   3.054   5.915   5.406  0.7379 -0.2439 -0.0459
 1118ESO    C1a20410   3.005   6.035   5.465  0.1742  0.2714  0.3572
 1118ESO    H1a20411   2.906   6.070   5.418 -0.2853 -0.6471  3.1246
 1118ESO    H1a20412   3.002   6.033   5.573  1.8669 -1.2228  1.9964
 1118ESO    C2a20413   3.110   6.137   5.437  0.1987 -0.1573  0.6627
 1118ESO    H2a20414   3.194   6.131   5.511 -1.1649 -1.4769  1.5621
 1118ESO    H2a20415   3.072   6.235   5.436  0.0890  0.0127 -0.1103
 1118ESO    H2a20416   3.151   6.113   5.338  1.7006  2.2270  0.8443
 1119ESO     O120417   1.100   6.034   5.623  0.6949  0.0058  0.0047
 1119ESO     O120418   1.273   6.202   5.649 -0.1056  0.1739  0.4534
 1119ESO     O120419   1.276   6.009   5.788 -0.0373  0.4533  0.2142
 1119ESO      S20420   1.235   6.065   5.665  0.0660  0.2269  0.1414
 1119ESO     O220421   1.324   5.993   5.556 -1.0957 -0.4247 -0.4608
 1119ESO    C1a20422   1.471   6.012   5.564 -0.6053 -0.4294 -0.1110
 1119ESO    H1a20423   1.491   6.116   5.537  1.8333 -1.5962  0.1511
 1119ESO    H1a20424   1.517   6.001   5.669 -0.5495 -0.8889  1.9317
 1119ESO    C2a20425   1.526   5.908   5.468 -0.7169  0.4317 -0.5831
 1119ESO    H2a20426   1.633   5.919   5.445  0.4475  1.3742 -0.5217
 1119ESO    H2a20427   1.484   5.917   5.371  0.8226 -1.4120 -0.0416
 1119ESO    H2a20428   1.527   5.804   5.501 -0.6188 -0.9649 -1.4098
 1120ESO     O120429   5.215   1.577   0.042  0.3288  0.2050  0.2253
 1120ESO     O120430   5.285   1.684   0.243 -0.2981  0.3704 -0.4294
 1120ESO     O120431   5.270   1.445   0.238 -0.2911 -0.0890  0.3953
 1120ESO      S20432   5.293   1.565   0.161  0.3430  0.1122 -0.1180
 1120ESO     O220433   5.438   1.563   0.105 -0.0352 -0.1095 -0.2283
 1120ESO    C1a20434   5.471   1.465   0.004 -0.0823  0.1658 -0.7341
 1120ESO    H1a20435   5.394   1.388   0.004 -2.5635 -0.1769  1.0813
 1120ESO    H1a20436   5.465   1.515  -0.096  0.3338  0.6006 -1.5697
 1120ESO    C2a20437   5.607   1.411   0.038 -0.4892 -0.4018 -0.2723
 1120ESO    H2a20438   5.610   1.368   0.144  0.1679  1.2625 -1.1667
 1120ESO    H2a20439   5.681   1.487   0.025 -2.6479 -0.2353  0.1934
 1120ESO    H2a20440   5.626   1.334  -0.030 -1.1662 -0.1436 -0.0458
 1121ESO     O120441   3.809   1.719   6.646  0.2097  0.5127 -0.3689
 1121ESO     O120442   4.000   1.791   6.538 -0.6120  0.1554 -0.4946
 1121ESO     O120443   3.794   1.899   6.476 -0.5995 -0.3656  0.0348
 1121ESO      S20444   3.869   1.832   6.585 -0.2382  0.1747  0.0673
 1121ESO     O220445   3.911   1.934   6.693 -0.0890  0.5070 -0.4572
 1121ESO    C1a20446   3.802   1.992   6.772  0.7163  0.3129  0.2804
 1121ESO    H1a20447   3.714   1.982   6.706 -1.2609 -0.4407  1.2356
 1121ESO    H1a20448   3.795   1.933   6.867  0.6812 -0.0963 -0.8244
 1121ESO    C2a20449   3.826   2.140   6.809  0.2244  0.1504  0.1510
 1121ESO    H2a20450   3.856   2.200   6.727  0.0521  0.1144 -0.5673
 1121ESO    H2a20451   3.897   2.155   6.882 -0.5808 -0.0098  1.2202
 1121ESO    H2a20452   3.730   2.185   6.847  1.5022  0.1850 -0.5653
 1122ESO     O120453   0.818   1.040   6.065  0.1804 -0.2365 -0.1216
 1122ESO     O120454   0.788   1.282   6.082  0.0938 -0.0798 -0.1912
 1122ESO     O120455   0.894   1.191   5.888  0.1440  0.2314  0.1278
 1122ESO      S20456   0.799   1.165   6.000  0.0244 -0.0154 -0.0136
 1122ESO     O220457   0.665   1.154   5.935  0.3249 -0.1339 -0.2914
 1122ESO    C1a20458   0.659   1.063   5.825  0.2165  0.2804 -0.5787
 1122ESO    H1a20459   0.654   1.119   5.739 -1.7119 -0.8569  1.3006
 1122ESO    H1a20460   0.749   0.995   5.816  1.6773 -4.9308 -0.3954
 1122ESO    C2a20461   0.534   0.979   5.848 -0.9279 -0.8490  0.2357
 1122ESO    H2a20462   0.538   0.922   5.942 -2.8621  2.0485  1.8392
 1122ESO    H2a20463   0.519   0.907   5.770 -0.0682 -1.6422 -1.8087
 1122ESO    H2a20464   0.445   1.033   5.840  0.4930 -1.5497  0.3823
 1123ESO     O120465   2.882   1.749   5.613 -0.4663  0.5706  0.7803
 1123ESO     O120466   2.962   1.584   5.766 -0.2968  0.0009  0.0977
 1123ESO     O120467   2.723   1.634   5.749  0.4768  0.6354 -0.5542
 1123ESO      S20468   2.848   1.626   5.679 -0.4132  0.2251 -0.2897
 1123ESO     O220469   2.821   1.520   5.562  0.5276  0.0605 -0.5573
 1123ESO    C1a20470   2.778   1.395   5.611  0.1440  0.6234  0.1603
 1123ESO    H1a20471   2.858   1.372   5.678  0.4636 -0.2885 -1.3173
 1123ESO    H1a20472   2.686   1.395   5.656  1.3034  1.2406 -3.3454
 1123ESO    C2a20473   2.767   1.299   5.494 -0.3593 -0.8952  0.0030
 1123ESO    H2a20474   2.861   1.295   5.447 -2.0490 -0.6264  2.7410
 1123ESO    H2a20475   2.691   1.321   5.419  2.0651 -1.6950  1.4126
 1123ESO    H2a20476   2.742   1.194   5.511  1.3010 -1.9022 -3.1390
 1124ESO     O120477   1.528   1.167   6.567 -0.4917  0.1478  0.6542
 1124ESO     O120478   1.311   1.152   6.458  0.2836  0.4066  0.5522
 1124ESO     O120479   1.318   1.186   6.682  0.5709 -0.0744 -0.3424
 1124ESO      S20480   1.391   1.209   6.565 -0.1036 -0.2569  0.5029
 1124ESO     O220481   1.388   1.361   6.547 -0.0994  0.0085  0.2213
 1124ESO    C1a20482   1.462   1.434   6.648 -0.1249 -0.4665 -0.9831
 1124ESO    H1a20483   1.503   1.362   6.718  0.7643  0.4431 -0.3048
 1124ESO    H1a20484   1.551   1.485   6.606 -0.6326  4.0752  1.2246
 1124ESO    C2a20485   1.382   1.528   6.725 -0.4448 -0.6519 -0.1386
 1124ESO    H2a20486   1.298   1.488   6.780  1.5270  2.0436  0.9581
 1124ESO    H2a20487   1.348   1.602   6.651 -0.6713 -1.5157  0.3148
 1124ESO    H2a20488   1.450   1.578   6.796 -1.4819  0.7116  1.5394
 1125ESO     O120489   3.784   3.966   1.826 -0.4912  0.1526  0.0806
 1125ESO     O120490   3.965   4.017   1.674  0.5081 -0.1254  0.4830
 1125ESO     O120491   3.965   4.101   1.902 -0.5817 -0.5079  0.0577
 1125ESO      S20492   3.923   3.997   1.810 -0.2007 -0.0355  0.0715
 1125ESO     O220493   3.997   3.876   1.866  0.2720  0.7184 -0.1411
 1125ESO    C1a20494   4.130   3.848   1.817  0.3099 -0.1456  0.7557
 1125ESO    H1a20495   4.120   3.768   1.745 -0.5791  0.1679  3.3262
 1125ESO    H1a20496   4.173   3.932   1.764  0.2063  0.2209  2.1469
 1125ESO    C2a20497   4.213   3.825   1.940  0.2605  0.9059  0.0928
 1125ESO    H2a20498   4.319   3.806   1.920 -0.5952  0.7627 -0.6307
 1125ESO    H2a20499   4.173   3.746   2.003 -0.5290 -0.0955  0.4475
 1125ESO    H2a20500   4.222   3.909   2.009  0.8402 -1.7156  0.2533
 1126ESO     O120501   0.778   6.570   3.585 -0.5742 -0.7510  0.2980
 1126ESO     O120502   0.971   6.670   3.484  0.2663  0.4837  0.8273
 1126ESO     O120503   0.995   6.466   3.614  0.3992 -0.1222 -0.4384
 1126ESO      S20504   0.907   6.543   3.530 -0.1221  0.4024  0.4824
 1126ESO     O220505   0.878   6.466   3.402 -0.0092  0.3789  0.3309
 1126ESO    C1a20506   0.985   6.381   3.342  0.3301  0.3488 -0.0155
 1126ESO    H1a20507   1.067   6.451   3.323 -1.0483  0.7453 -0.1348
 1126ESO    H1a20508   1.029   6.307   3.413 -0.0593  0.4612  0.5478
 1126ESO    C2a20509   0.924   6.324   3.212 -0.3665 -0.4102 -0.1253
 1126ESO    H2a20510   0.867   6.398   3.151  0.7300  0.0443 -0.5234
 1126ESO    H2a20511   0.853   6.245   3.234 -0.3750  1.2649 -1.1194
 1126ESO    H2a20512   1.000   6.285   3.149 -2.8079  0.0598  0.9378
 1127ESO     O120513   5.617   5.843   0.633  0.3189  0.5139 -0.2001
 1127ESO     O120514   5.561   5.676   0.466 -0.0387  0.2326  0.3654
 1127ESO     O120515   5.391   5.781   0.589  0.1677 -0.7083  0.4965
 1127ESO      S20516   5.521   5.793   0.535  0.1784 -0.0841  0.1815
 1127ESO     O220517   5.511   5.910   0.417 -0.3506 -0.1456 -0.2971
 1127ESO    C1a20518   5.408   6.012   0.431  0.4727 -0.4810  0.5315
 1127ESO    H1a20519   5.371   6.046   0.340  2.5261  1.2200  0.3432
 1127ESO    H1a20520   5.326   5.976   0.489 -0.6292 -1.8076 -0.3767
 1127ESO    C2a20521   5.469   6.135   0.513  0.0466 -0.3854  0.3786
 1127ESO    H2a20522   5.544   6.191   0.456 -0.8154 -2.3896  2.0774
 1127ESO    H2a20523   5.512   6.101   0.601 -0.2133 -2.1769  0.3074
 1127ESO    H2a20524   5.391   6.213   0.536  1.1224 -0.4759 -0.4207
 1128ESO     O120525   1.235   6.007   4.801  0.2032 -0.3118 -0.1920
 1128ESO     O120526   1.181   6.150   4.978 -0.6330 -0.1668  0.4690
 1128ESO     O120527   1.401   6.056   4.966  0.2265  0.6577  0.3721
 1128ESO      S20528   1.287   6.104   4.890 -0.6926  0.3850 -0.5411
 1128ESO     O220529   1.321   6.239   4.814 -0.4810  0.1983 -0.6178
 1128ESO    C1a20530   1.407   6.211   4.698  0.2744 -0.0456 -0.3095
 1128ESO    H1a20531   1.485   6.147   4.724 -0.6707 -1.3614  0.5395
 1128ESO    H1a20532   1.356   6.156   4.623 -0.6096  0.0852  0.7491
 1128ESO    C2a20533   1.453   6.346   4.652 -0.5498 -0.0402  0.3635
 1128ESO    H2a20534   1.373   6.422   4.654  0.5762 -1.5872 -2.0481
 1128ESO    H2a20535   1.497   6.337   4.554  0.9075 -0.5662  2.0590
 1128ESO    H2a20536   1.538   6.377   4.718 -1.1328 -0.3764  1.1719
 1129ESO     O120537   0.213   2.767   4.896 -0.4657 -0.5049  0.1420
 1129ESO     O120538   0.295   2.541   4.927  0.1794 -0.0770 -0.0234
 1129ESO     O120539   0.078   2.578   4.837  0.0929 -0.3856 -0.5295
 1129ESO      S20540   0.211   2.631   4.850 -0.0855  0.5934  0.2303
 1129ESO     O220541   0.271   2.641   4.708  0.1603  0.3850  0.1026
 1129ESO    C1a20542   0.184   2.697   4.601 -0.4340  0.6385  0.8777
 1129ESO    H1a20543   0.079   2.670   4.610 -1.0782  0.1610  3.0093
 1129ESO    H1a20544   0.191   2.806   4.616 -3.1515 -0.6075  2.0956
 1129ESO    C2a20545   0.230   2.641   4.463  0.3578 -0.0239 -0.1645
 1129ESO    H2a20546   0.178   2.685   4.379  2.9360  0.9987 -0.0100
 1129ESO    H2a20547   0.218   2.536   4.457 -0.9199  1.4768 -0.9550
 1129ESO    H2a20548   0.333   2.651   4.446  0.3118  2.9182  0.6258
 1130ESO     O120549   6.318   1.378   3.023 -0.3648 -0.1910  0.7666
 1130ESO     O120550   6.391   1.203   3.161 -0.3552 -0.1114 -0.4455
 1130ESO     O120551   6.154   1.241   3.128 -0.2539 -0.4549 -0.1862
 1130ESO      S20552   6.286   1.251   3.072 -0.4998  0.2280 -0.1159
 1130ESO     O220553   6.300   1.146   2.950  0.0925 -0.0578 -0.1062
 1130ESO    C1a20554   6.198   1.171   2.847  0.5071  0.2661  0.0699
 1130ESO    H1a20555   6.099   1.162   2.897 -2.0505  2.0616 -1.3620
 1130ESO    H1a20556   6.209   1.268   2.801 -0.9066 -3.5535 -0.5526
 1130ESO    C2a20557   6.213   1.064   2.748 -0.4771 -0.2911 -0.0178
 1130ESO    H2a20558   6.160   1.088   2.656 -3.1476  2.3245  1.5663
 1130ESO    H2a20559   6.179   0.964   2.790  0.2551  0.6247  2.2683
 1130ESO    H2a20560   6.322   1.054   2.722  3.5461 -0.8436 -1.8625
 1131ESO     O120561   1.915   1.527   5.573 -0.0706  0.2682  0.1994
 1131ESO     O120562   1.835   1.733   5.646  0.2999  0.1137 -0.5069
 1131ESO     O120563   2.068   1.695   5.636  0.0327 -0.2302 -1.2045
 1131ESO      S20564   1.943   1.666   5.578 -0.2190  0.0858 -0.1220
 1131ESO     O220565   1.950   1.718   5.424 -0.2733  0.0018 -1.1618
 1131ESO    C1a20566   2.059   1.680   5.339  0.9486  0.3904 -0.5330
 1131ESO    H1a20567   2.087   1.762   5.278  1.0100  1.4332 -1.7671
 1131ESO    H1a20568   2.144   1.662   5.402  2.1860  0.3725 -0.5714
 1131ESO    C2a20569   2.024   1.550   5.266  0.0723 -0.9245  0.5686
 1131ESO    H2a20570   2.061   1.465   5.320 -0.1127 -1.7702  1.9624
 1131ESO    H2a20571   2.059   1.552   5.159  1.6803  0.1840 -1.0160
 1131ESO    H2a20572   1.916   1.538   5.251  2.1113 -0.5945 -0.8642
 1132ESO     O120573   5.787   3.923   3.961  0.4870 -0.3087 -0.5963
 1132ESO     O120574   5.708   4.125   4.076 -0.2067 -0.0874  0.5669
 1132ESO     O120575   5.814   4.138   3.868  0.4420 -0.2063 -0.6674
 1132ESO      S20576   5.737   4.053   3.950 -0.0975 -0.2273 -0.2618
 1132ESO     O220577   5.596   4.028   3.874  0.3104 -0.1155 -0.1080
 1132ESO    C1a20578   5.476   3.988   3.951 -0.1393  0.3772  0.0374
 1132ESO    H1a20579   5.496   3.898   4.004 -1.5922  1.3652 -1.5747
 1132ESO    H1a20580   5.449   4.063   4.021 -0.3042 -0.6129 -1.9446
 1132ESO    C2a20581   5.360   3.978   3.843  0.1113  0.2853 -0.9709
 1132ESO    H2a20582   5.350   4.084   3.810 -1.8859  0.5581  3.3871
 1132ESO    H2a20583   5.266   3.946   3.890  1.6561  2.2123 -0.4877
 1132ESO    H2a20584   5.390   3.910   3.765 -2.0057  1.5173  1.5087
 1133ESO     O120585   3.139   0.841   5.818  1.0418  0.2876 -0.4918
 1133ESO     O120586   2.910   0.818   5.786  0.5647  0.0065 -0.0382
 1133ESO     O120587   3.005   0.785   6.003 -0.7288 -0.7842 -0.3862
 1133ESO      S20588   3.012   0.857   5.880 -0.1421  0.1908 -0.2161
 1133ESO     O220589   2.991   1.011   5.913  0.0274 -0.7697  0.2158
 1133ESO    C1a20590   3.105   1.092   5.963  1.1164 -0.0361  0.2612
 1133ESO    H1a20591   3.093   1.096   6.070 -2.1860 -0.6830 -1.8994
 1133ESO    H1a20592   3.202   1.037   5.942 -2.0057 -0.9760  0.9103
 1133ESO    C2a20593   3.093   1.228   5.898  0.2003 -0.0132  0.0775
 1133ESO    H2a20594   3.191   1.272   5.925  0.2322  0.2769  1.8346
 1133ESO    H2a20595   3.010   1.290   5.950  0.0815  0.1069  0.8525
 1133ESO    H2a20596   3.080   1.226   5.795  2.0381  0.9987  0.1327
 1134ESO     O120597   5.467   3.155   2.214  0.3548  0.3058  0.0467
 1134ESO     O120598   5.431   2.919   2.206 -0.9867  0.1570  0.1023
 1134ESO     O120599   5.276   3.050   2.318 -0.2323 -0.0470 -0.1470
 1134ESO      S20600   5.371   3.050   2.213 -0.1980  0.4518  0.3805
 1134ESO     O220601   5.293   3.067   2.078  0.5265  0.2150 -0.0148
 1134ESO    C1a20602   5.184   3.163   2.072  0.1670  0.1892  0.1177
 1134ESO    H1a20603   5.129   3.157   2.162 -0.4209 -0.7669 -2.6472
 1134ESO    H1a20604   5.215   3.266   2.072 -1.6569 -1.0378  1.5710
 1134ESO    C2a20605   5.092   3.131   1.956 -0.4940 -0.1194  0.2827
 1134ESO    H2a20606   5.137   3.150   1.854 -0.1717  2.3048 -0.5381
 1134ESO    H2a20607   4.994   3.171   1.950  1.4374 -0.6045 -0.2141
 1134ESO    H2a20608   5.075   3.027   1.956  3.5765  0.8192 -1.0873
 1135ESO     O120609   3.044   0.977   4.419 -0.3251  0.4196 -0.0493
 1135ESO     O120610   2.994   1.204   4.457 -0.4839 -0.0018 -0.3526
 1135ESO     O120611   3.116   1.147   4.264 -0.3918  0.4398 -0.2304
 1135ESO      S20612   3.015   1.103   4.359 -0.1401 -0.2136 -0.5016
 1135ESO     O220613   2.884   1.089   4.276 -0.1615 -0.2038 -0.2038
 1135ESO    C1a20614   2.818   1.202   4.209  0.8667 -0.0159 -1.0515
 1135ESO    H1a20615   2.888   1.288   4.206 -2.2953 -1.4188  0.5452
 1135ESO    H1a20616   2.792   1.171   4.107 -0.2132 -0.3424 -1.8250
 1135ESO    C2a20617   2.696   1.244   4.285 -0.7426  0.1134 -0.3908
 1135ESO    H2a20618   2.724   1.272   4.383  0.3604 -1.1612 -3.4863
 1135ESO    H2a20619   2.635   1.159   4.297 -0.5917  0.0915 -0.3442
 1135ESO    H2a20620   2.638   1.329   4.248 -1.3219 -1.0041  3.1770
 1136ESO     O120621   6.795   4.015   1.472 -0.1552  0.4819  0.6243
 1136ESO     O120622   6.746   4.094   1.684  0.3729 -0.0485  0.1852
 1136ESO     O120623   6.819   4.249   1.522  0.0885  0.4972 -0.4998
 1136ESO      S20624   6.747   4.128   1.545 -0.1726 -0.4910  0.3686
 1136ESO     O220625   6.603   4.152   1.488  0.5066 -0.2815 -0.0195
 1136ESO    C1a20626   6.494   4.202   1.577  0.3150 -0.7616 -0.3478
 1136ESO    H1a20627   6.448   4.125   1.636  2.5353 -0.2951  1.1196
 1136ESO    H1a20628   6.536   4.280   1.638  2.9236 -4.0765  0.3406
 1136ESO    C2a20629   6.381   4.252   1.483 -0.6794  0.0245 -0.1612
 1136ESO    H2a20630   6.408   4.337   1.413  1.9850 -1.1886 -1.5757
 1136ESO    H2a20631   6.300   4.284   1.540  1.1051 -1.8395  1.3436
 1136ESO    H2a20632   6.344   4.169   1.430  0.1703 -2.7006  0.7603
 1137ESO     O120633   4.498   0.649   3.212  0.1570  0.9688 -0.1029
 1137ESO     O120634   4.432   0.877   3.164 -0.6210 -0.1604 -0.1259
 1137ESO     O120635   4.370   0.772   3.370 -0.0386  0.3619  0.0974
 1137ESO      S20636   4.468   0.778   3.262  0.3555  0.1261 -0.0160
 1137ESO     O220637   4.599   0.828   3.336 -0.9036 -0.2392 -0.2200
 1137ESO    C1a20638   4.707   0.892   3.264 -0.3129 -0.3353  0.4105
 1137ESO    H1a20639   4.803   0.851   3.284  0.2619  3.1903 -1.2862
 1137ESO    H1a20640   4.692   0.871   3.159 -0.8789  0.5783  0.8240
 1137ESO    C2a20641   4.708   1.042   3.287  0.4957  0.2076 -0.6484
 1137ESO    H2a20642   4.610   1.094   3.300 -0.9140 -0.1994 -2.9975
 1137ESO    H2a20643   4.759   1.099   3.212 -0.9328 -1.9181 -0.2333
 1137ESO    H2a20644   4.758   1.048   3.386 -0.6769 -0.8542 -0.6344
 1138ESO     O120645   0.780   6.622   5.499 -0.4997 -0.1668  0.2746
 1138ESO     O120646   0.696   6.404   5.483 -0.4414  0.0382 -0.2881
 1138ESO     O120647   0.902   6.458   5.370 -0.8216  0.5216 -0.2429
 1138ESO      S20648   0.813   6.481   5.483  0.2173  0.2157  0.1165
 1138ESO     O220649   0.885   6.432   5.613  0.2069 -0.1515  0.0993
 1138ESO    C1a20650   1.000   6.507   5.663  0.0780  0.3171  0.1099
 1138ESO    H1a20651   1.089   6.495   5.606 -2.3155  1.8553 -1.1613
 1138ESO    H1a20652   0.977   6.607   5.674 -0.5506  4.4178  2.2649
 1138ESO    C2a20653   1.022   6.451   5.800 -0.3941  0.3970  0.9299
 1138ESO    H2a20654   1.083   6.364   5.819 -0.5394  3.7362  0.9286
 1138ESO    H2a20655   0.930   6.427   5.847 -1.0647 -2.7212  1.0909
 1138ESO    H2a20656   1.070   6.527   5.855 -0.8861 -0.2603 -1.7050
 1139ESO     O120657   2.138   5.364   2.466 -0.0647 -0.1364 -0.2078
 1139ESO     O120658   2.164   5.181   2.620  0.1765  0.1166 -0.1642
 1139ESO     O120659   2.349   5.283   2.521 -0.6380  0.2599 -0.0216
 1139ESO      S20660   2.218   5.302   2.568 -0.0295  0.2347  0.7610
 1139ESO     O220661   2.227   5.402   2.685 -0.1957  0.2154  0.0532
 1139ESO    C1a20662   2.102   5.464   2.743  0.1396  0.6113 -0.1745
 1139ESO    H1a20663   2.108   5.569   2.744  0.1481  1.0849  1.3522
 1139ESO    H1a20664   2.022   5.432   2.690  2.3381  1.1851 -1.6325
 1139ESO    C2a20665   2.085   5.417   2.881  1.1260  0.1751 -0.4979
 1139ESO    H2a20666   2.053   5.313   2.883  0.9490  0.8166  0.3567
 1139ESO    H2a20667   2.024   5.476   2.947  2.3145  2.0302 -0.6762
 1139ESO    H2a20668   2.188   5.427   2.924 -1.1543  0.4593  1.0561
 1140ESO     O120669   1.864   4.887   0.630 -0.2480 -0.6664 -0.2384
 1140ESO     O120670   1.793   5.114   0.593  0.0030 -0.1319  0.1031
 1140ESO     O120671   1.926   5.060   0.786 -0.3725 -0.1143 -0.4608
 1140ESO      S20672   1.892   5.026   0.650 -0.4672 -0.0806  0.2404
 1140ESO     O220673   2.016   5.056   0.569 -0.4026  0.0939 -0.3053
 1140ESO    C1a20674   2.109   5.165   0.606 -0.2910  0.2320  0.3595
 1140ESO    H1a20675   2.054   5.257   0.623  0.4004  0.2062 -0.1504
 1140ESO    H1a20676   2.143   5.136   0.710 -0.5630 -1.8497 -0.3696
 1140ESO    C2a20677   2.215   5.162   0.501 -0.7644 -0.2854  1.3612
 1140ESO    H2a20678   2.176   5.211   0.409 -1.6314 -1.3004  0.9388
 1140ESO    H2a20679   2.244   5.066   0.477 -2.4014  0.6119  0.8242
 1140ESO    H2a20680   2.308   5.214   0.525  1.6972  0.6343  0.3407
 1141ESO     O120681   5.725   4.400   2.676  0.0521 -0.0471 -0.2413
 1141ESO     O120682   5.664   4.631   2.656  0.1029  0.5249 -0.3473
 1141ESO     O120683   5.565   4.466   2.522  0.3161  0.0792 -0.2235
 1141ESO      S20684   5.622   4.490   2.646 -0.0290 -0.0324  0.1326
 1141ESO     O220685   5.507   4.474   2.759 -0.3556  0.4631  0.0771
 1141ESO    C1a20686   5.558   4.509   2.893  0.8176 -0.5301  0.2289
 1141ESO    H1a20687   5.652   4.467   2.922  1.1592 -1.4680 -0.6446
 1141ESO    H1a20688   5.564   4.616   2.896  0.6608 -2.6497 -0.9837
 1141ESO    C2a20689   5.454   4.477   2.991 -0.1067 -0.2088  0.2024
 1141ESO    H2a20690   5.441   4.366   3.002 -0.5935 -0.2128  1.9406
 1141ESO    H2a20691   5.365   4.529   2.961  1.2012  2.7509 -0.8303
 1141ESO    H2a20692   5.466   4.525   3.092  1.1038  0.3467 -3.2920
 1142ESO     O120693   0.686   0.636   5.446  0.1462 -0.2546 -0.1395
 1142ESO     O120694   0.879   0.760   5.367  0.0776 -0.1518 -0.0893
 1142ESO     O120695   0.692   0.876   5.464 -0.3201  0.3446  0.6917
 1142ESO      S20696   0.770   0.754   5.459 -0.1234  0.0893  0.0402
 1142ESO     O220697   0.831   0.727   5.599 -0.2361  0.0527 -0.1976
 1142ESO    C1a20698   0.739   0.709   5.716 -0.0685  0.3039 -0.6458
 1142ESO    H1a20699   0.773   0.777   5.788  2.2583  2.5041  0.3352
 1142ESO    H1a20700   0.640   0.725   5.690 -2.4151  2.4753  0.6608
 1142ESO    C2a20701   0.744   0.564   5.764 -0.0772  0.2954 -0.1668
 1142ESO    H2a20702   0.837   0.519   5.728  1.1223  1.5043  0.7008
 1142ESO    H2a20703   0.662   0.517   5.714  1.7639  0.8009  0.7055
 1142ESO    H2a20704   0.729   0.551   5.868 -0.8328  0.4079 -0.0875
 1143ESO     O120705   1.521   5.395   5.439  0.2674 -0.8468 -0.3909
 1143ESO     O120706   1.463   5.579   5.309 -0.3520 -0.3724 -0.1617
 1143ESO     O120707   1.669   5.461   5.262 -0.0542  0.3472 -0.3863
 1143ESO      S20708   1.535   5.458   5.313  0.0254  0.4267  0.1506
 1143ESO     O220709   1.446   5.370   5.211  0.0404  0.2460 -0.2870
 1143ESO    C1a20710   1.315   5.326   5.252  0.0591 -0.0860  0.1628
 1143ESO    H1a20711   1.315   5.270   5.346 -0.9669  0.1468  0.6094
 1143ESO    H1a20712   1.240   5.400   5.255 -0.8834 -0.3526  1.7356
 1143ESO    C2a20713   1.278   5.231   5.143  0.1532  0.1831 -0.0139
 1143ESO    H2a20714   1.256   5.285   5.048 -1.0277  0.5873 -0.0339
 1143ESO    H2a20715   1.187   5.179   5.171 -1.2324 -1.8091 -0.4112
 1143ESO    H2a20716   1.359   5.159   5.118  1.0383  0.2266 -1.4625
 1144ESO     O120717   6.304   4.624   3.913  0.1549  0.0723  0.0341
 1144ESO     O120718   6.498   4.674   4.044  0.0549 -0.5673 -0.2238
 1144ESO     O120719   6.302   4.815   4.066  0.0273 -0.1080  0.3927
 1144ESO      S20720   6.351   4.683   4.036 -0.4855  0.0037 -0.0252
 1144ESO     O220721   6.297   4.587   4.149  0.2323 -0.1111 -0.3063
 1144ESO    C1a20722   6.299   4.633   4.290  0.2122  0.0886  0.0207
 1144ESO    H1a20723   6.311   4.547   4.352  0.4211  2.1873 -0.5725
 1144ESO    H1a20724   6.383   4.696   4.314 -0.5269 -3.0171 -3.1768
 1144ESO    C2a20725   6.158   4.680   4.327  0.4489 -0.0574  0.3263
 1144ESO    H2a20726   6.146   4.778   4.276 -1.0399  0.5357  0.2162
 1144ESO    H2a20727   6.146   4.706   4.428 -1.6263  0.9667  0.9350
 1144ESO    H2a20728   6.075   4.613   4.300  0.2215 -0.5553 -0.8231
 1145ESO     O120729   3.337   3.746   6.508  0.2919  0.2618  0.1365
 1145ESO     O120730   3.367   3.786   6.739  0.1895 -0.5425  0.5030
 1145ESO     O120731   3.479   3.600   6.639 -0.0738  0.0667 -0.8217
 1145ESO      S20732   3.429   3.733   6.621  0.0618 -0.0361 -0.0750
 1145ESO     O220733   3.550   3.827   6.588  0.0402 -0.2803 -0.0938
 1145ESO    C1a20734   3.657   3.832   6.687 -0.3216 -0.5165 -0.0830
 1145ESO    H1a20735   3.659   3.927   6.738  0.8882  0.4484 -0.4318
 1145ESO    H1a20736   3.662   3.754   6.763  0.6591  1.0788  1.5752
 1145ESO    C2a20737   3.790   3.821   6.616 -0.9156 -0.3872  0.0417
 1145ESO    H2a20738   3.801   3.718   6.578  1.3325 -0.3889 -0.5256
 1145ESO    H2a20739   3.869   3.839   6.687 -0.2205  0.0828 -0.2589
 1145ESO    H2a20740   3.799   3.877   6.527  0.8304  1.7085  1.8617
 1146ESO     O120741   4.382   0.208   1.559  0.3285  0.5953  0.2625
 1146ESO     O120742   4.470   0.262   1.765  0.8645  0.0264  0.5287
 1146ESO     O120743   4.527   0.402   1.584 -0.2694 -0.2527  0.2175
 1146ESO      S20744   4.428   0.314   1.640 -0.0217  0.1732 -0.1258
 1146ESO     O220745   4.299   0.415   1.671  0.8152 -0.2287  0.0372
 1146ESO    C1a20746   4.205   0.434   1.564  0.1454 -0.3595 -0.1390
 1146ESO    H1a20747   4.238   0.383   1.468  0.3265  0.5930 -0.2518
 1146ESO    H1a20748   4.117   0.376   1.591 -1.9550  1.3851  2.4916
 1146ESO    C2a20749   4.179   0.581   1.552 -0.2439 -0.2479 -0.2133
 1146ESO    H2a20750   4.273   0.631   1.524  0.0611  1.8453 -1.7314
 1146ESO    H2a20751   4.138   0.621   1.647 -0.7450  0.6506 -0.8484
 1146ESO    H2a20752   4.111   0.599   1.472 -0.3660 -1.0539 -0.5173
 1147ESO     O120753   4.959   2.798   6.544 -0.0460  0.0830 -0.1453
 1147ESO     O120754   4.762   2.680   6.483 -0.0278  0.3672 -0.5190
 1147ESO     O120755   4.975   2.569   6.500 -0.9930  0.1263  0.5057
 1147ESO      S20756   4.891   2.672   6.543  0.1131 -0.1825 -0.3224
 1147ESO     O220757   4.869   2.653   6.697  0.6669  0.3287  0.0985
 1147ESO    C1a20758   4.764   2.725   6.758 -0.2381  0.9303 -0.5105
 1147ESO    H1a20759   4.750   2.818   6.710 -0.2531 -2.1108 -0.5980
 1147ESO    H1a20760   4.667   2.667   6.750 -0.5644 -1.4558 -0.0804
 1147ESO    C2a20761   4.798   2.736   6.905  0.3014 -0.1111 -0.9699
 1147ESO    H2a20762   4.715   2.793   6.949  0.6838  1.8096  0.3255
 1147ESO    H2a20763   4.887   2.797   6.930  2.0712 -0.2506  3.5346
 1147ESO    H2a20764   4.813   2.642   6.955  0.0583  0.2715  1.1033
 1148ESO     O120765   5.574   4.936   4.799  0.6349 -0.4436 -0.1882
 1148ESO     O120766   5.388   4.952   4.961 -0.1749 -0.4395  0.8155
 1148ESO     O120767   5.518   5.151   4.898 -0.4811  0.0576 -0.0686
 1148ESO      S20768   5.473   5.019   4.860  0.0590  0.7693  0.0021
 1148ESO     O220769   5.377   5.055   4.737 -0.0921  0.4429  0.6959
 1148ESO    C1a20770   5.299   4.948   4.678  0.1472 -0.0992  0.0244
 1148ESO    H1a20771   5.355   4.858   4.688  0.1873 -0.0878  2.2366
 1148ESO    H1a20772   5.201   4.936   4.726  0.5529  0.1808  0.9922
 1148ESO    C2a20773   5.274   4.985   4.532  0.1171 -0.4539  0.3770
 1148ESO    H2a20774   5.174   5.002   4.505  1.1031 -2.4318  1.8251
 1148ESO    H2a20775   5.298   4.897   4.480  0.0992 -0.9018 -1.1568
 1148ESO    H2a20776   5.348   5.062   4.488 -0.6850  1.3629  0.2873
 1149ESO     O120777   4.113   5.412   3.677 -0.1836 -0.2323 -0.5953
 1149ESO     O120778   3.962   5.570   3.577  0.0645 -0.1400 -0.4396
 1149ESO     O120779   4.181   5.535   3.483  0.2667 -0.1245  0.0409
 1149ESO      S20780   4.073   5.485   3.559  0.1677 -0.4334 -0.1139
 1149ESO     O220781   4.008   5.368   3.460  0.0544  0.3515 -0.2544
 1149ESO    C1a20782   4.071   5.237   3.436  0.5599  0.2857  0.3836
 1149ESO    H1a20783   4.158   5.248   3.378  1.6034 -2.2343 -1.9092
 1149ESO    H1a20784   4.080   5.183   3.525 -1.1662  2.5559 -0.9088
 1149ESO    C2a20785   3.971   5.151   3.357 -0.0939  0.2354  0.0795
 1149ESO    H2a20786   4.008   5.048   3.356 -1.1386  3.2578  1.2306
 1149ESO    H2a20787   3.962   5.177   3.257  1.6520  0.4139  0.9217
 1149ESO    H2a20788   3.875   5.145   3.405  0.7090 -1.4614  2.3254
 1150ESO     O120789   2.064   1.917   3.537 -0.5259 -0.6661  0.3652
 1150ESO     O120790   2.091   2.124   3.431 -0.2956  0.6679  0.5772
 1150ESO     O120791   2.206   2.081   3.630  0.0260 -0.5645  0.2894
 1150ESO      S20792   2.154   2.023   3.509 -0.5810  0.0987 -0.2883
 1150ESO     O220793   2.277   1.959   3.428 -0.3833 -0.4785  0.1997
 1150ESO    C1a20794   2.278   1.879   3.300  0.0387  0.3743  0.6171
 1150ESO    H1a20795   2.382   1.848   3.294 -0.9341  2.3575  0.0812
 1150ESO    H1a20796   2.227   1.787   3.316 -0.7854  2.6588 -0.9156
 1150ESO    C2a20797   2.226   1.950   3.181  0.4887 -0.3772  0.0529
 1150ESO    H2a20798   2.227   1.886   3.094 -1.6665  1.6576 -0.9952
 1150ESO    H2a20799   2.293   2.035   3.153  0.0523 -1.6030 -0.4981
 1150ESO    H2a20800   2.131   1.999   3.194  2.9162  0.8567  0.2738
 1151ESO     O120801   5.179   1.080   3.279  0.3237  0.4556 -0.0760
 1151ESO     O120802   5.213   0.889   3.408 -0.1629  0.6297  0.1845
 1151ESO     O120803   5.013   1.008   3.436 -0.0196 -0.0279  0.6746
 1151ESO      S20804   5.115   0.969   3.346  0.3054  0.0512 -0.4898
 1151ESO     O220805   5.045   0.882   3.236  0.1004 -0.3922 -0.0431
 1151ESO    C1a20806   5.133   0.817   3.136  0.0627 -0.0321 -0.9212
 1151ESO    H1a20807   5.241   0.837   3.149  0.2366  0.5308  1.1551
 1151ESO    H1a20808   5.108   0.707   3.129 -0.0468  1.0580 -1.7174
 1151ESO    C2a20809   5.093   0.877   3.003  0.3236 -0.4861 -0.2692
 1151ESO    H2a20810   5.155   0.841   2.926  0.8079 -2.4715 -0.8855
 1151ESO    H2a20811   5.109   0.982   3.022 -1.1374 -0.2842  0.3755
 1151ESO    H2a20812   4.993   0.873   2.977  2.3298  1.4342 -0.6290
 1152ESO     O120813   4.975   6.659   1.485  0.1505 -0.3786  0.1613
 1152ESO     O120814   5.029   6.575   1.260  0.3428 -0.6465  0.2225
 1152ESO     O120815   4.998   6.429   1.439  0.1804 -0.1650 -0.1963
 1152ESO      S20816   4.961   6.554   1.382 -0.0696 -0.2335  0.2803
 1152ESO     O220817   4.800   6.531   1.358  0.2992 -0.6434  0.3986
 1152ESO    C1a20818   4.754   6.461   1.241  0.1217  0.1210 -0.0208
 1152ESO    H1a20819   4.833   6.402   1.206 -2.1484  1.2557 -1.4743
 1152ESO    H1a20820   4.664   6.400   1.277 -0.1705 -2.0748 -1.4409
 1152ESO    C2a20821   4.703   6.570   1.145 -0.7437  0.3291  0.9209
 1152ESO    H2a20822   4.655   6.531   1.053  0.8335 -0.7298  1.3232
 1152ESO    H2a20823   4.781   6.636   1.109  0.8505 -0.3947  0.9194
 1152ESO    H2a20824   4.637   6.640   1.188  4.5788  0.0584  0.8850
 1153ESO     O120825   0.632   4.360   2.780 -0.3344  0.1740  0.2841
 1153ESO     O120826   0.693   4.426   2.999  0.0296 -0.1588  0.2300
 1153ESO     O120827   0.839   4.294   2.873  0.3126  0.2686  0.3261
 1153ESO      S20828   0.743   4.395   2.869  0.0416  0.3252  0.2275
 1153ESO     O220829   0.815   4.527   2.813  0.2420  0.1362  0.0680
 1153ESO    C1a20830   0.873   4.498   2.684  0.4921 -0.7866 -0.0160
 1153ESO    H1a20831   0.973   4.535   2.677  0.3136  0.1583 -0.9713
 1153ESO    H1a20832   0.861   4.395   2.654  1.1327 -0.9685 -1.5515
 1153ESO    C2a20833   0.780   4.556   2.579 -0.4577 -0.2178  0.2769
 1153ESO    H2a20834   0.691   4.499   2.570  2.5842  0.1088 -0.8981
 1153ESO    H2a20835   0.830   4.573   2.479  0.9259 -0.0219 -2.5281
 1153ESO    H2a20836   0.754   4.651   2.620  1.6754 -0.3348 -0.6620
 1154ESO     O120837   4.991   4.470   0.564  0.2775  0.3106  0.4301
 1154ESO     O120838   5.042   4.440   0.795 -0.2590  1.0237  0.0002
 1154ESO     O120839   5.098   4.269   0.642 -0.1769  0.6515 -0.7316
 1154ESO      S20840   5.079   4.409   0.665  0.4441 -0.5934 -0.2195
 1154ESO     O220841   5.218   4.484   0.646 -0.8462 -0.1723  0.0027
 1154ESO    C1a20842   5.272   4.481   0.511  0.1462 -0.1739  0.1220
 1154ESO    H1a20843   5.239   4.391   0.452 -1.1483 -1.8591 -0.1293
 1154ESO    H1a20844   5.246   4.568   0.452 -3.0177 -2.6478 -1.4593
 1154ESO    C2a20845   5.414   4.479   0.539 -0.1563 -0.0685 -0.4209
 1154ESO    H2a20846   5.441   4.572   0.579 -0.6480 -0.5887  0.8673
 1154ESO    H2a20847   5.473   4.468   0.452 -3.2865 -0.9904 -0.0693
 1154ESO    H2a20848   5.445   4.399   0.612 -3.2105 -0.0984  2.0864
 1155ESO     O120849   3.913   3.507   6.454 -0.1221 -0.0192 -0.4908
 1155ESO     O120850   3.947   3.343   6.275 -0.2117  0.6560  0.6530
 1155ESO     O120851   3.772   3.302   6.432  0.2110  0.2658 -0.6728
 1155ESO      S20852   3.854   3.404   6.367  0.4157 -0.0861 -0.1586
 1155ESO     O220853   3.749   3.480   6.280 -0.2231 -0.3074  0.1913
 1155ESO    C1a20854   3.648   3.563   6.343 -0.1121 -0.1060  0.2445
 1155ESO    H1a20855   3.599   3.503   6.420  1.0526  1.3487 -0.3025
 1155ESO    H1a20856   3.708   3.649   6.386  1.4265  1.3210 -1.1529
 1155ESO    C2a20857   3.557   3.597   6.234 -0.9952 -0.3321  0.0858
 1155ESO    H2a20858   3.500   3.691   6.253  3.0279  1.1848  0.2158
 1155ESO    H2a20859   3.488   3.519   6.218 -0.5212 -0.2715  1.7940
 1155ESO    H2a20860   3.603   3.610   6.136  1.1994 -1.3713  0.6859
 1156ESO     O120861   4.385   5.525   5.083 -0.6630  0.1415  0.2154
 1156ESO     O120862   4.548   5.426   5.227  0.0323 -0.6754 -1.1142
 1156ESO     O120863   4.385   5.580   5.314 -0.4076 -0.0660  0.2907
 1156ESO      S20864   4.413   5.481   5.215  0.2064  0.0010 -0.0750
 1156ESO     O220865   4.318   5.365   5.253 -0.0752 -0.3846  0.1285
 1156ESO    C1a20866   4.331   5.234   5.193 -0.0329 -0.5863 -0.4344
 1156ESO    H1a20867   4.263   5.226   5.113  0.9531  5.2034 -0.1007
 1156ESO    H1a20868   4.438   5.227   5.152  1.3529  1.2201  0.0990
 1156ESO    C2a20869   4.292   5.129   5.295  0.0303  0.1348 -0.1457
 1156ESO    H2a20870   4.335   5.026   5.274  0.0807  0.8992  1.7053
 1156ESO    H2a20871   4.187   5.124   5.290  0.7408 -0.2011  1.0648
 1156ESO    H2a20872   4.321   5.154   5.399 -0.4652  1.3425 -0.3070
 1157ESO     O120873   3.298   1.470   2.452 -0.1762 -0.2373 -0.2759
 1157ESO     O120874   3.243   1.303   2.622  0.2590 -0.4321  0.3429
 1157ESO     O120875   3.407   1.261   2.448  0.1319  0.2479 -0.0748
 1157ESO      S20876   3.339   1.358   2.530  0.0170  0.1601 -0.5813
 1157ESO     O220877   3.466   1.405   2.618 -0.0372  0.1929 -0.4035
 1157ESO    C1a20878   3.571   1.479   2.548 -0.1960 -0.4912 -0.3796
 1157ESO    H1a20879   3.627   1.405   2.485  0.0360  1.6264 -1.8818
 1157ESO    H1a20880   3.525   1.559   2.488 -0.5127 -0.5055 -2.1002
 1157ESO    C2a20881   3.677   1.526   2.648 -0.1426 -0.3706 -0.8266
 1157ESO    H2a20882   3.760   1.573   2.597  2.9209  2.8676  1.3956
 1157ESO    H2a20883   3.706   1.430   2.695  1.3160 -0.6294  0.2239
 1157ESO    H2a20884   3.639   1.597   2.725  0.0719 -0.8163 -2.1890
 1158ESO     O120885   4.395   3.109   4.091  0.1143 -0.4579 -0.0946
 1158ESO     O120886   4.305   3.095   3.872  0.1794 -0.2694  0.0180
 1158ESO     O120887   4.165   3.060   4.054 -0.1846  0.7597  0.0684
 1158ESO      S20888   4.282   3.127   4.006  0.0238 -0.1565  0.1635
 1158ESO     O220889   4.254   3.284   4.015 -0.8701 -0.3870 -0.4796
 1158ESO    C1a20890   4.325   3.372   3.915 -0.1448 -0.6986  0.1343
 1158ESO    H1a20891   4.413   3.420   3.957  1.9327 -2.2549 -1.9502
 1158ESO    H1a20892   4.355   3.319   3.824  0.2262  0.3938 -1.1775
 1158ESO    C2a20893   4.213   3.459   3.873 -1.1527  0.1643  0.4656
 1158ESO    H2a20894   4.235   3.544   3.807 -1.0530  1.7697  0.4253
 1158ESO    H2a20895   4.183   3.507   3.964  0.5140 -1.0856 -0.3592
 1158ESO    H2a20896   4.126   3.400   3.843  1.4327 -1.0510  1.1880
 1159ESO     O120897   6.017   4.154   5.980 -0.6864 -1.1593  0.1944
 1159ESO     O120898   6.108   4.035   6.165 -0.3686 -0.1421 -0.2813
 1159ESO     O120899   6.235   4.216   6.047 -0.6329 -0.1773 -0.1184
 1159ESO      S20900   6.106   4.160   6.091  0.3679  0.1771 -0.1686
 1159ESO     O220901   6.046   4.261   6.186  0.3342 -0.6072 -0.4914
 1159ESO    C1a20902   6.031   4.395   6.145  0.4501 -0.5574 -0.3025
 1159ESO    H1a20903   6.105   4.460   6.185 -1.8580 -1.9172  2.5666
 1159ESO    H1a20904   6.034   4.398   6.037  2.5955  3.5530 -0.7578
 1159ESO    C2a20905   5.902   4.445   6.196  0.3565 -0.3276  0.0450
 1159ESO    H2a20906   5.898   4.436   6.306 -0.9374 -0.6780 -0.6214
 1159ESO    H2a20907   5.818   4.383   6.155  1.6055  0.2767  0.5234
 1159ESO    H2a20908   5.884   4.553   6.168 -0.6694 -0.1798 -0.6972
 1160ESO     O120909   4.700   6.536   3.624 -0.0060  1.1239 -0.3460
 1160ESO     O120910   4.941   6.540   3.617 -0.4126 -0.0193  0.9995
 1160ESO     O120911   4.818   6.744   3.622 -0.0058  0.3824  1.0112
 1160ESO      S20912   4.821   6.606   3.663 -0.1033  0.6193 -0.1458
 1160ESO     O220913   4.822   6.599   3.816 -0.0361  0.1689  0.4989
 1160ESO    C1a20914   4.721   6.666   3.895  0.5325  1.1328 -0.1258
 1160ESO    H1a20915   4.718   6.769   3.869 -0.3142  0.5806  1.5122
 1160ESO    H1a20916   4.621   6.622   3.879  4.7283 -2.5641 -0.6946
 1160ESO    C2a20917   4.746   6.659   4.051  0.4485  0.9248 -0.1590
 1160ESO    H2a20918   4.783   6.566   4.087 -0.2993  0.4123  0.1824
 1160ESO    H2a20919   4.652   6.692   4.107 -1.9586  4.0092 -1.4637
 1160ESO    H2a20920   4.824   6.735   4.085  1.0106  3.8209 -0.2970
 1161ESO     O120921   2.257   2.654   2.837  0.6383 -0.6146  0.7649
 1161ESO     O120922   2.130   2.652   3.043  0.0648 -0.5501 -0.1545
 1161ESO     O120923   2.051   2.773   2.850 -0.2213 -0.2977 -0.1993
 1161ESO      S20924   2.129   2.662   2.898  0.6724  0.0595 -0.3859
 1161ESO     O220925   2.040   2.548   2.854  0.8729 -0.5310 -0.4984
 1161ESO    C1a20926   1.905   2.536   2.895 -0.0461 -0.5308  0.1122
 1161ESO    H1a20927   1.892   2.554   3.001  0.9406  0.6149  3.6746
 1161ESO    H1a20928   1.835   2.596   2.834  0.3789  1.9284 -0.0405
 1161ESO    C2a20929   1.875   2.384   2.869  0.2533  0.0117 -0.0870
 1161ESO    H2a20930   1.772   2.356   2.892 -0.3642 -2.3648 -1.1519
 1161ESO    H2a20931   1.931   2.328   2.941  0.6818  2.8359  1.8393
 1161ESO    H2a20932   1.909   2.363   2.765  1.0390 -3.5032 -1.0648
 1162ESO     O120933   3.476   0.228   5.505 -0.9068  0.2070 -0.3158
 1162ESO     O120934   3.347   0.174   5.697  0.0155 -0.0591 -0.5195
 1162ESO     O120935   3.365   0.403   5.624  0.0218 -0.4418  0.1298
 1162ESO      S20936   3.361   0.264   5.584 -0.0262  0.2175 -0.0864
 1162ESO     O220937   3.241   0.252   5.489 -0.2281 -0.1043 -0.6313
 1162ESO    C1a20938   3.195   0.119   5.456 -0.0924 -0.2996 -0.2945
 1162ESO    H1a20939   3.269   0.080   5.392 -2.4560 -1.1293 -0.1419
 1162ESO    H1a20940   3.197   0.060   5.542  2.1794  0.0908  0.0231
 1162ESO    C2a20941   3.057   0.120   5.384 -0.3867 -0.0639  0.9345
 1162ESO    H2a20942   3.031   0.225   5.378  0.7762 -0.8494 -1.5664
 1162ESO    H2a20943   2.974   0.056   5.421  0.4805 -1.3362 -1.4945
 1162ESO    H2a20944   3.078   0.083   5.286  1.1426 -0.1172  0.7705
 1163ESO     O120945   1.753   6.722   6.448 -0.1141  0.1542 -0.2190
 1163ESO     O120946   1.894   6.600   6.609 -0.1583  0.4967 -0.3670
 1163ESO     O120947   1.947   6.603   6.374 -0.3439  0.3214  0.2807
 1163ESO      S20948   1.884   6.668   6.486  0.2495  0.1666 -0.0823
 1163ESO     O220949   1.969   6.797   6.517 -0.1551 -0.1280  0.0265
 1163ESO    C1a20950   2.014   6.882   6.412 -0.1872  0.3934 -0.1044
 1163ESO    H1a20951   2.084   6.831   6.355 -0.5497 -2.8639  1.2915
 1163ESO    H1a20952   1.925   6.919   6.353 -4.0768  0.6946 -3.1181
 1163ESO    C2a20953   2.087   7.002   6.479 -0.1206 -0.2028 -0.0736
 1163ESO    H2a20954   2.012   7.054   6.545  0.6659  0.7946 -1.7333
 1163ESO    H2a20955   2.128   7.072   6.408  3.4073  1.1910  0.4234
 1163ESO    H2a20956   2.173   6.969   6.530  1.5963 -1.3236 -1.1982
 1164ESO     O120957   3.470   2.967   5.128 -0.4900 -0.4503 -0.5274
 1164ESO     O120958   3.495   3.114   4.940 -0.0298 -0.2422 -0.1213
 1164ESO     O120959   3.688   3.058   5.060  0.5655 -0.0683 -0.0205
 1164ESO      S20960   3.559   3.010   5.021 -0.2368  0.1445  0.1160
 1164ESO     O220961   3.596   2.880   4.916 -0.1208  0.0446 -0.5077
 1164ESO    C1a20962   3.486   2.810   4.856 -0.6334  0.0938  0.8266
 1164ESO    H1a20963   3.391   2.818   4.915  0.4355  0.3916 -0.9398
 1164ESO    H1a20964   3.472   2.841   4.754  1.4498 -0.9226 -1.8694
 1164ESO    C2a20965   3.525   2.668   4.845 -0.0997  0.8848  0.4461
 1164ESO    H2a20966   3.626   2.655   4.805 -1.7604  0.2644 -0.1219
 1164ESO    H2a20967   3.459   2.616   4.787  1.9994  3.5789 -0.6945
 1164ESO    H2a20968   3.510   2.634   4.948  1.9638 -1.3090  2.6795
 1165ESO     O120969   6.685   2.403   5.366  0.3491 -0.0917 -0.2061
 1165ESO     O120970   6.444   2.361   5.364 -0.2674 -0.1020  0.1932
 1165ESO     O120971   6.585   2.194   5.280  0.4856  0.1934  0.0994
 1165ESO      S20972   6.575   2.304   5.371 -0.0928 -0.3661 -0.5910
 1165ESO     O220973   6.592   2.240   5.511  0.3241  0.0809  0.1080
 1165ESO    C1a20974   6.588   2.324   5.629  0.6141  0.1836  0.1727
 1165ESO    H1a20975   6.683   2.304   5.678 -1.2007 -2.3351  0.5229
 1165ESO    H1a20976   6.576   2.431   5.604  0.9193 -2.9992  0.9629
 1165ESO    C2a20977   6.474   2.276   5.716  0.0816 -0.2243  1.0890
 1165ESO    H2a20978   6.379   2.278   5.659  0.2462 -0.6457  0.1825
 1165ESO    H2a20979   6.465   2.347   5.793  0.7531 -0.3930  2.2575
 1165ESO    H2a20980   6.485   2.174   5.758 -0.2454 -2.2278  0.5073
 1166ESO     O120981   0.827   0.650   3.094 -0.7793  0.0504  0.3609
 1166ESO     O120982   1.046   0.748   3.048  0.7017  0.4289  1.2568
 1166ESO     O120983   1.019   0.513   3.046 -0.0959 -0.0192 -0.1250
 1166ESO      S20984   0.954   0.637   3.024 -0.1853  0.0525  0.0677
 1166ESO     O220985   0.928   0.645   2.866  0.5462  0.6193  0.5843
 1166ESO    C1a20986   0.870   0.533   2.797  0.2771  0.3690  0.4754
 1166ESO    H1a20987   0.936   0.501   2.722  0.8455 -1.6580  3.4922
 1166ESO    H1a20988   0.861   0.441   2.870  1.1794 -0.5533  1.5348
 1166ESO    C2a20989   0.733   0.579   2.755  0.7167  0.9558 -0.2208
 1166ESO    H2a20990   0.685   0.489   2.729  0.8647  2.9996  0.6731
 1166ESO    H2a20991   0.729   0.636   2.666 -1.9873 -0.6414  3.8824
 1166ESO    H2a20992   0.680   0.628   2.835 -1.7913  1.1192 -0.6715
 1167ESO     O120993   1.107   3.064   3.815  0.1676 -0.1916  0.2962
 1167ESO     O120994   1.334   3.128   3.841 -0.2530 -0.8640 -0.1256
 1167ESO     O120995   1.264   2.906   3.896 -0.1117 -0.3095  0.0574
 1167ESO      S20996   1.245   3.024   3.815  0.3517 -0.1421  0.0746
 1167ESO     O220997   1.277   2.979   3.667 -0.1918  0.1704 -0.5941
 1167ESO    C1a20998   1.408   2.927   3.634 -0.2500  0.1453 -0.5286
 1167ESO    H1a20999   1.464   3.001   3.585 -1.4260 -2.0906 -2.2953
 1167ESO    H1a21000   1.469   2.890   3.721 -3.5827 -1.5684  0.6619
 1167ESO    C2a21001   1.398   2.804   3.548  0.8814 -0.8705  0.5182
 1167ESO    H2a21002   1.359   2.728   3.612  1.8158  0.3445 -0.4781
 1167ESO    H2a21003   1.493   2.768   3.503 -0.9521 -0.7778 -2.6940
 1167ESO    H2a21004   1.335   2.811   3.466  1.5046 -1.2998 -1.8178
 1168ESO     O121005   0.496   0.704   1.683 -0.1969 -0.2955  0.0725
 1168ESO     O121006   0.576   0.477   1.658 -0.3431  0.5911  0.7746
 1168ESO     O121007   0.369   0.548   1.550 -0.4260 -0.3061 -0.6497
 1168ESO      S21008   0.502   0.588   1.601  0.2845 -0.1331 -0.0733
 1168ESO     O221009   0.586   0.630   1.483  0.4508  0.3285  0.0140
 1168ESO    C1a21010   0.559   0.744   1.396 -0.0596  0.5039  0.7322
 1168ESO    H1a21011   0.459   0.750   1.373  3.1441  0.3215 -2.6865
 1168ESO    H1a21012   0.587   0.844   1.442  1.8426  1.5540 -2.7021
 1168ESO    C2a21013   0.645   0.731   1.272 -0.5972  0.3564  0.2034
 1168ESO    H2a21014   0.597   0.793   1.192  0.5087  0.3200  2.0430
 1168ESO    H2a21015   0.656   0.630   1.231  1.5072 -1.1068  0.2145
 1168ESO    H2a21016   0.755   0.759   1.295  0.3358  1.1125 -1.3917
 1169ESO     O121017   2.558   2.918   1.714 -0.1723 -0.6368 -0.0634
 1169ESO     O121018   2.708   2.788   1.590 -0.5594 -0.0858 -0.1134
 1169ESO     O121019   2.567   2.685   1.756  0.1506  0.1295  0.4921
 1169ESO      S21020   2.582   2.790   1.659 -0.0652 -0.1961  0.4766
 1169ESO     O221021   2.474   2.768   1.540  0.5339 -0.1059  0.0719
 1169ESO    C1a21022   2.330   2.802   1.567 -0.2980  0.8020 -0.0166
 1169ESO    H1a21023   2.299   2.785   1.671  0.3526  1.6335  0.6102
 1169ESO    H1a21024   2.324   2.908   1.545 -1.4102  2.8332 -0.7971
 1169ESO    C2a21025   2.244   2.719   1.472 -0.7594  0.7167  0.2361
 1169ESO    H2a21026   2.286   2.617   1.467  2.2358  3.7655  1.2372
 1169ESO    H2a21027   2.232   2.748   1.371 -0.3388 -1.7999  0.0208
 1169ESO    H2a21028   2.146   2.714   1.517  2.3316  2.2052  0.8584
 1170ESO     O121029   3.055   5.655   6.347 -0.5194  0.3466  0.4572
 1170ESO     O121030   3.200   5.616   6.526  0.1804 -0.0319 -0.8238
 1170ESO     O121031   3.279   5.567   6.303  0.3192  0.3269  0.4233
 1170ESO      S21032   3.195   5.648   6.386  0.2017 -0.1921 -0.0274
 1170ESO     O221033   3.252   5.793   6.368  0.1234 -0.6628 -0.2206
 1170ESO    C1a21034   3.202   5.915   6.426  0.5151  0.6145  0.2391
 1170ESO    H1a21035   3.222   5.995   6.351  1.4510 -0.2681  0.4342
 1170ESO    H1a21036   3.101   5.912   6.453  2.3880  0.0172  1.2996
 1170ESO    C2a21037   3.283   5.943   6.549  0.2653  0.4427  0.3143
 1170ESO    H2a21038   3.394   5.927   6.526  3.1390  1.2424  1.4755
 1170ESO    H2a21039   3.264   5.874   6.630  0.1295 -0.1556  0.0736
 1170ESO    H2a21040   3.261   6.037   6.603 -2.3687 -1.6906 -0.4503
 1171ESO     O121041   6.564   3.168   5.726 -0.2433  0.2767 -0.2706
 1171ESO     O121042   6.327   3.197   5.744 -0.4260 -0.0469  0.1245
 1171ESO     O121043   6.449   3.032   5.876 -0.0640 -0.4303 -0.1679
 1171ESO      S21044   6.447   3.158   5.811 -0.0594  0.2997 -0.2298
 1171ESO     O221045   6.474   3.258   5.927  0.2051 -0.8444  0.2519
 1171ESO    C1a21046   6.374   3.280   6.024 -1.0917  0.1768 -0.0552
 1171ESO    H1a21047   6.275   3.289   5.971  0.4006 -1.1810  0.7731
 1171ESO    H1a21048   6.363   3.192   6.092 -1.7758  1.2078  0.1051
 1171ESO    C2a21049   6.413   3.412   6.094  0.8370  0.1323 -0.0857
 1171ESO    H2a21050   6.510   3.419   6.145 -1.4704  0.4222  1.2931
 1171ESO    H2a21051   6.347   3.427   6.185 -1.6080 -0.7709 -0.0610
 1171ESO    H2a21052   6.403   3.491   6.021  0.7529 -0.8571  1.2612
 1172ESO     O121053   5.605   6.462   4.594 -0.0256  0.0312  0.2785
 1172ESO     O121054   5.539   6.610   4.778  0.0288 -0.3469  0.4058
 1172ESO     O121055   5.777   6.582   4.706 -0.6439 -0.2231  0.0271
 1172ESO      S21056   5.637   6.582   4.667  0.5309 -0.3230 -0.1763
 1172ESO     O221057   5.632   6.698   4.565 -0.0909 -0.1715  0.2058
 1172ESO    C1a21058   5.497   6.731   4.507  0.1467 -0.3327  0.0045
 1172ESO    H1a21059   5.445   6.660   4.441  0.6187 -1.1314  1.1175
 1172ESO    H1a21060   5.424   6.744   4.584 -1.8924  2.8851 -0.6378
 1172ESO    C2a21061   5.516   6.859   4.429 -0.2569 -0.2835  0.3759
 1172ESO    H2a21062   5.586   6.859   4.350  0.2369 -0.9793  1.6377
 1172ESO    H2a21063   5.541   6.946   4.494  0.5222  1.0165  0.0443
 1172ESO    H2a21064   5.420   6.886   4.383 -4.1861 -1.3363 -1.4208
 1173ESO     O121065   3.596   0.482   4.840 -0.0942  0.1217  0.2539
 1173ESO     O121066   3.592   0.605   4.640  0.0734  0.0654 -0.0546
 1173ESO     O121067   3.795   0.575   4.751 -0.2648  0.3965  0.1566
 1173ESO      S21068   3.667   0.511   4.717 -0.3505 -0.4566 -0.5030
 1173ESO     O221069   3.684   0.371   4.641  0.4453 -0.0600  0.2884
 1173ESO    C1a21070   3.765   0.371   4.523  0.2340 -0.0578 -0.0308
 1173ESO    H1a21071   3.711   0.405   4.435  0.9235 -1.7866 -1.2116
 1173ESO    H1a21072   3.839   0.449   4.549 -1.0506 -0.1210 -1.8607
 1173ESO    C2a21073   3.800   0.223   4.510  0.2026  0.0515  0.2325
 1173ESO    H2a21074   3.720   0.163   4.537  2.1346 -3.0879 -1.3616
 1173ESO    H2a21075   3.868   0.202   4.591 -1.7895 -0.9660  0.1461
 1173ESO    H2a21076   3.841   0.193   4.419  1.5265  1.3333 -0.9234
 1174ESO     O121077   2.984   6.204   1.570  0.0067  0.8001 -0.3863
 1174ESO     O121078   3.011   6.090   1.774 -0.6544 -0.3245 -0.1106
 1174ESO     O121079   3.095   6.318   1.751 -0.3843  0.1627  0.8962
 1174ESO      S21080   3.000   6.219   1.714 -0.4085  0.1607  0.0981
 1174ESO     O221081   2.862   6.277   1.766 -0.3920 -0.9904 -0.9192
 1174ESO    C1a21082   2.792   6.382   1.687 -0.2756  0.2386  0.2662
 1174ESO    H1a21083   2.861   6.453   1.635  0.3497  0.6663 -1.4963
 1174ESO    H1a21084   2.727   6.344   1.604  0.2289 -0.6518  0.3597
 1174ESO    C2a21085   2.719   6.459   1.793  0.4228  0.1836  0.4801
 1174ESO    H2a21086   2.776   6.467   1.886 -0.0907 -0.0662 -0.2996
 1174ESO    H2a21087   2.629   6.412   1.813 -0.1530  0.2880 -0.8276
 1174ESO    H2a21088   2.699   6.559   1.753 -0.9012  1.6032 -0.4659
 1175ESO     O121089   4.669   1.831   6.734 -0.1854  0.2794  0.3579
 1175ESO     O121090   4.527   1.651   6.724  0.5580  0.0894  0.7026
 1175ESO     O121091   4.434   1.863   6.717 -0.1650 -0.2742 -0.0988
 1175ESO      S21092   4.545   1.784   6.682  0.0507  0.0956  0.0414
 1175ESO     O221093   4.549   1.788   6.524 -0.1375 -0.7694 -0.2061
 1175ESO    C1a21094   4.421   1.769   6.453 -0.6778 -0.3226  0.0907
 1175ESO    H1a21095   4.445   1.709   6.362 -0.5642  1.5399 -1.7368
 1175ESO    H1a21096   4.356   1.713   6.522  1.0742  0.5269  0.3757
 1175ESO    C2a21097   4.371   1.905   6.399  0.0106  0.4862  0.4399
 1175ESO    H2a21098   4.313   1.955   6.475  0.5274 -1.2302  0.3614
 1175ESO    H2a21099   4.296   1.906   6.317  0.1389  1.3278  1.0651
 1175ESO    H2a21100   4.450   1.961   6.363 -1.2497 -2.0837 -1.4950
 1176ESO     O121101   4.986   0.900   5.428  0.0730 -0.5293 -0.1306
 1176ESO     O121102   5.155   0.980   5.275  0.6238 -0.0637 -0.6824
 1176ESO     O121103   4.998   1.133   5.382 -0.7969 -0.1592 -0.2282
 1176ESO      S21104   5.069   1.011   5.389 -0.1415  0.3523  0.1920
 1176ESO     O221105   5.177   1.041   5.506  0.5668  0.6144  0.5529
 1176ESO    C1a21106   5.269   0.931   5.535 -0.0507  0.4912 -0.2995
 1176ESO    H1a21107   5.208   0.848   5.558  0.1416  0.4571 -4.7102
 1176ESO    H1a21108   5.335   0.905   5.451 -2.1932 -0.4394 -1.1889
 1176ESO    C2a21109   5.355   0.977   5.649  0.2729  0.9565 -0.4343
 1176ESO    H2a21110   5.400   0.891   5.693 -2.3184  0.6513  1.4027
 1176ESO    H2a21111   5.302   1.025   5.733 -1.8154  0.3320  0.8431
 1176ESO    H2a21112   5.427   1.045   5.621 -0.3936 -1.8194  1.6754
 1177ESO     O121113   4.642   1.315   0.709  0.2275  1.0649 -0.6091
 1177ESO     O121114   4.520   1.108   0.661  0.2928  0.1363  0.1176
 1177ESO     O121115   4.571   1.268   0.491  0.2784 -0.5689 -0.1501
 1177ESO      S21116   4.612   1.209   0.616  0.0941 -0.2876  0.2290
 1177ESO     O221117   4.750   1.138   0.584  0.4444 -0.1715 -0.7239
 1177ESO    C1a21118   4.808   1.046   0.680 -0.0507 -0.5647 -0.3197
 1177ESO    H1a21119   4.731   0.986   0.724 -0.6239  0.6809 -1.1103
 1177ESO    H1a21120   4.873   0.980   0.623  0.7656 -0.4828  3.0920
 1177ESO    C2a21121   4.901   1.119   0.777  0.0432 -0.3314  0.0487
 1177ESO    H2a21122   4.839   1.162   0.851  4.3916  0.8835  1.7182
 1177ESO    H2a21123   4.965   1.203   0.737 -1.0462  1.0099  0.2518
 1177ESO    H2a21124   4.972   1.052   0.835 -1.2808 -2.2070  0.2882
 1178ESO     O121125   2.234   4.113   4.005 -0.0782  0.3155  1.0295
 1178ESO     O121126   2.221   4.277   3.827  0.3752  0.5463 -0.3600
 1178ESO     O121127   2.124   4.059   3.796  0.0850 -0.0722 -0.0635
 1178ESO      S21128   2.163   4.162   3.888 -0.0120 -0.2271  0.2903
 1178ESO     O221129   2.023   4.212   3.956 -0.2475 -0.4013  0.6709
 1178ESO    C1a21130   1.940   4.293   3.871 -0.3205  1.1291 -0.3952
 1178ESO    H1a21131   1.993   4.387   3.844  0.6501 -1.5077  1.7718
 1178ESO    H1a21132   1.929   4.230   3.781  0.3258 -1.1971 -0.2081
 1178ESO    C2a21133   1.809   4.317   3.943  0.7937 -0.5836  0.5076
 1178ESO    H2a21134   1.729   4.245   3.932 -0.9016 -1.3590  0.0127
 1178ESO    H2a21135   1.774   4.413   3.902 -0.6848 -1.7673 -2.0128
 1178ESO    H2a21136   1.832   4.336   4.047 -2.1800 -0.1463 -0.1226
 1179ESO     O121137   3.067   2.109   3.473  0.4288  0.2720  0.7772
 1179ESO     O121138   2.986   1.883   3.453 -0.3675  0.2150 -0.6691
 1179ESO     O121139   2.871   2.060   3.342 -0.6096  0.4543  0.2901
 1179ESO      S21140   2.997   2.011   3.393  0.1484  0.0266  0.5546
 1179ESO     O221141   3.077   1.995   3.261 -0.6831 -0.4677  0.3984
 1179ESO    C1a21142   3.202   1.930   3.263 -0.4324 -0.7023 -0.0141
 1179ESO    H1a21143   3.276   1.990   3.325  1.9978  0.1576 -1.0885
 1179ESO    H1a21144   3.193   1.827   3.302 -0.9498  1.5245 -2.9166
 1179ESO    C2a21145   3.239   1.927   3.117 -0.0495  0.1418 -0.5159
 1179ESO    H2a21146   3.174   1.880   3.043  0.8545  1.1046  0.5444
 1179ESO    H2a21147   3.334   1.882   3.099 -0.9262  2.8134 -0.3809
 1179ESO    H2a21148   3.241   2.029   3.082  1.9770  0.5192 -0.5520
 1180ESO     O121149   2.310   4.224   0.235 -0.1857 -0.1447 -0.1756
 1180ESO     O121150   2.505   4.297   0.109 -0.0749 -0.2543  0.8147
 1180ESO     O121151   2.311   4.198   0.008 -0.4109 -0.0953  0.3127
 1180ESO      S21152   2.361   4.276   0.114 -0.3826  0.0889  0.2917
 1180ESO     O221153   2.290   4.421   0.104  0.4192  0.3327  0.7483
 1180ESO    C1a21154   2.297   4.509   0.219 -0.3997 -0.1547  0.4918
 1180ESO    H1a21155   2.265   4.457   0.312 -1.8191 -0.4630 -0.8537
 1180ESO    H1a21156   2.401   4.549   0.230 -0.6639  0.8719 -2.8284
 1180ESO    C2a21157   2.210   4.627   0.188 -1.1311 -0.1006  0.1445
 1180ESO    H2a21158   2.102   4.604   0.162  0.0941  2.6352 -0.5970
 1180ESO    H2a21159   2.246   4.676   0.101 -0.3979 -1.7080  1.6874
 1180ESO    H2a21160   2.219   4.691   0.273  1.9388  0.0790  0.2351
 1181ESO     O121161   2.878   4.391   2.293 -0.1308 -0.0909  0.5941
 1181ESO     O121162   2.994   4.477   2.105  0.1793 -0.5353  0.5216
 1181ESO     O121163   2.787   4.570   2.173  0.2450  0.6376  0.3252
 1181ESO      S21164   2.910   4.509   2.214  0.4029  0.3673 -0.1918
 1181ESO     O221165   2.993   4.615   2.296  0.3392 -0.3868  0.0063
 1181ESO    C1a21166   3.047   4.736   2.230 -0.0135 -0.1779  0.0153
 1181ESO    H1a21167   3.097   4.706   2.132  0.8581 -2.0464 -0.9878
 1181ESO    H1a21168   2.975   4.807   2.206  1.2161  0.6911  1.4393
 1181ESO    C2a21169   3.149   4.793   2.338  0.2963 -0.5976 -0.2310
 1181ESO    H2a21170   3.111   4.829   2.428  0.4228  0.4398  0.6195
 1181ESO    H2a21171   3.199   4.876   2.292  0.1181  0.6293 -1.8567
 1181ESO    H2a21172   3.224   4.720   2.368  0.4654 -0.0898  0.3892
 1182ESO     O121173   1.267   2.653   0.780  0.0775  0.1114  0.1439
 1182ESO     O121174   1.312   2.879   0.716 -0.1524  0.3982 -0.4589
 1182ESO     O121175   1.485   2.705   0.723  0.2649  0.3581 -0.3761
 1182ESO      S21176   1.350   2.742   0.704  0.2945  0.0565 -0.2957
 1182ESO     O221177   1.320   2.704   0.546  0.4965 -0.6008  0.1554
 1182ESO    C1a21178   1.180   2.712   0.506  0.0958 -0.0894  0.0978
 1182ESO    H1a21179   1.116   2.761   0.585 -0.8245  1.8966 -0.5691
 1182ESO    H1a21180   1.167   2.767   0.414  1.1691 -2.4030 -0.8208
 1182ESO    C2a21181   1.136   2.572   0.486  0.4417  0.7344  0.4365
 1182ESO    H2a21182   1.144   2.525   0.581 -2.2303  1.4097  0.7101
 1182ESO    H2a21183   1.196   2.523   0.409  1.4749 -2.1800 -0.2046
 1182ESO    H2a21184   1.028   2.570   0.450 -0.9273  1.5569 -0.0693
 1183ESO     O121185   5.987   0.749   6.402  0.1405  0.1852  0.5991
 1183ESO     O121186   6.041   0.958   6.296 -0.2750 -0.2853  0.4672
 1183ESO     O121187   6.178   0.762   6.263 -0.0168 -0.1618  0.0628
 1183ESO      S21188   6.044   0.816   6.287  0.2755  0.1572 -0.0768
 1183ESO     O221189   5.949   0.783   6.170  0.9678  0.1005 -0.1819
 1183ESO    C1a21190   6.005   0.798   6.040 -0.2364  0.5739 -0.1399
 1183ESO    H1a21191   6.041   0.901   6.034  0.4885  1.0142 -1.1507
 1183ESO    H1a21192   6.086   0.732   6.027 -1.3270 -0.2938  1.9797
 1183ESO    C2a21193   5.894   0.770   5.941 -0.0583 -0.3789 -0.2639
 1183ESO    H2a21194   5.868   0.663   5.947 -1.2718  1.2187  1.1899
 1183ESO    H2a21195   5.939   0.785   5.839 -1.5976 -1.3592 -1.0422
 1183ESO    H2a21196   5.807   0.838   5.954 -3.2723  0.8250  2.5022
 1184ESO     O121197   4.966   1.291   2.359  0.5956  0.1297  0.1559
 1184ESO     O121198   5.116   1.477   2.371 -0.2790 -0.2916 -0.6274
 1184ESO     O121199   5.179   1.267   2.272 -0.4029  0.0584 -0.0361
 1184ESO      S21200   5.075   1.360   2.305 -0.2550  0.0754 -0.2525
 1184ESO     O221201   5.026   1.408   2.162  0.4177  0.0668  0.3322
 1184ESO    C1a21202   4.899   1.488   2.151 -0.6246  0.5779 -0.4567
 1184ESO    H1a21203   4.823   1.448   2.214  1.9471  3.7771 -0.7779
 1184ESO    H1a21204   4.914   1.593   2.174  1.8097 -1.2909  0.7858
 1184ESO    C2a21205   4.855   1.483   2.009 -0.6401  0.6696 -0.1225
 1184ESO    H2a21206   4.939   1.488   1.940  1.6334  0.4719  0.8192
 1184ESO    H2a21207   4.787   1.564   1.976  4.0601  3.4429  0.4216
 1184ESO    H2a21208   4.819   1.380   1.984 -0.8910  1.0502  2.6343
 1185ESO     O121209   6.150   1.978   1.450 -0.4843  0.2540  0.3432
 1185ESO     O121210   6.200   2.114   1.656  0.2282 -0.1852  0.3127
 1185ESO     O121211   5.977   2.085   1.571 -0.5639  0.1256  0.6965
 1185ESO      S21212   6.106   2.028   1.581 -0.3169  0.3272  0.1762
 1185ESO     O221213   6.094   1.903   1.680 -0.0404 -0.0828 -0.1218
 1185ESO    C1a21214   6.062   1.924   1.818  0.1923  0.5201  0.2402
 1185ESO    H1a21215   6.156   1.940   1.878  1.9703 -0.8482  2.8545
 1185ESO    H1a21216   5.993   2.009   1.824 -0.4458  2.1180 -1.2323
 1185ESO    C2a21217   6.001   1.792   1.861  0.3289 -0.5697  0.1797
 1185ESO    H2a21218   5.906   1.775   1.820  2.5474  1.1254  0.6740
 1185ESO    H2a21219   5.983   1.790   1.967  0.6375  0.0076  0.1125
 1185ESO    H2a21220   6.072   1.713   1.821  1.1987 -2.6107  0.3708
 1186ESO     O121221   3.116   2.357   1.472  0.3407 -0.1396  0.4123
 1186ESO     O121222   3.041   2.587   1.458 -0.3667 -0.6392 -0.3380
 1186ESO     O121223   3.260   2.532   1.403  0.4951 -0.1899 -0.3023
 1186ESO      S21224   3.126   2.484   1.405 -0.3989 -0.0014  0.2575
 1186ESO     O221225   3.091   2.462   1.257 -0.1869  0.2395 -0.3148
 1186ESO    C1a21226   2.952   2.426   1.231  0.1775  0.0906  0.1523
 1186ESO    H1a21227   2.897   2.420   1.322  1.8478  1.8374  0.0552
 1186ESO    H1a21228   2.899   2.495   1.171 -3.1688 -1.5587 -1.1206
 1186ESO    C2a21229   2.955   2.290   1.166  0.1685 -0.2026  0.4303
 1186ESO    H2a21230   3.019   2.289   1.082 -2.0215  0.6503 -0.8644
 1186ESO    H2a21231   2.853   2.266   1.139 -0.8595 -0.6018 -2.0957
 1186ESO    H2a21232   2.989   2.211   1.232 -0.8133 -0.4700 -0.9635
 1187ESO     O121233   2.778   4.424   1.358 -0.5182  0.4180  0.5659
 1187ESO     O121234   2.707   4.238   1.223  0.0771 -0.5573  0.1632
 1187ESO     O121235   2.803   4.195   1.438 -0.1135  0.4454 -0.0009
 1187ESO      S21236   2.731   4.288   1.356  0.0254 -0.1129 -0.0731
 1187ESO     O221237   2.594   4.312   1.417  0.0727  0.0261 -0.6727
 1187ESO    C1a21238   2.495   4.203   1.423  0.5434  0.2553 -0.4760
 1187ESO    H1a21239   2.517   4.134   1.339  0.5464  0.0259 -0.8887
 1187ESO    H1a21240   2.503   4.149   1.518 -1.9104 -0.3923  2.6640
 1187ESO    C2a21241   2.366   4.276   1.402 -0.2605  0.4281  0.4081
 1187ESO    H2a21242   2.372   4.332   1.308 -0.6450  0.8338  0.6088
 1187ESO    H2a21243   2.346   4.357   1.479 -1.2799  2.5018 -3.5774
 1187ESO    H2a21244   2.282   4.206   1.391 -0.5873 -3.5016  1.2522
 1188ESO     O121245   5.986   5.360   4.316  0.5520 -0.0130 -0.2387
 1188ESO     O121246   6.130   5.501   4.435 -0.4933  0.0771 -0.3491
 1188ESO     O121247   6.044   5.315   4.543 -0.4698  0.2786  0.3904
 1188ESO      S21248   6.084   5.369   4.416  0.1263  0.1429 -0.3581
 1188ESO     O221249   6.204   5.283   4.370  0.0010  0.1675  0.0103
 1188ESO    C1a21250   6.287   5.345   4.270  0.5504 -0.4585 -0.0858
 1188ESO    H1a21251   6.245   5.436   4.236  1.5346  0.2741  0.0717
 1188ESO    H1a21252   6.377   5.362   4.312  4.0768 -1.5089 -1.7755
 1188ESO    C2a21253   6.301   5.254   4.150  0.5883 -0.3521  0.3169
 1188ESO    H2a21254   6.325   5.158   4.183 -0.9154 -2.0211  2.9921
 1188ESO    H2a21255   6.379   5.289   4.080  0.1058 -0.8361  0.0786
 1188ESO    H2a21256   6.206   5.241   4.092 -0.4209  1.0418 -0.3525
 1189ESO     O121257   2.120   6.409   4.068 -0.1560 -0.5437  0.3773
 1189ESO     O121258   2.133   6.647   4.045 -0.4995  0.0865 -0.2988
 1189ESO     O121259   2.246   6.547   4.214 -0.1123 -0.4054 -0.1574
 1189ESO      S21260   2.201   6.525   4.082 -0.4512 -0.1182 -0.0516
 1189ESO     O221261   2.315   6.502   3.982 -0.2369  0.4774 -0.0930
 1189ESO    C1a21262   2.414   6.399   4.004  0.4277  0.2933 -0.1860
 1189ESO    H1a21263   2.412   6.371   4.109  0.8228 -1.4083  0.3216
 1189ESO    H1a21264   2.385   6.316   3.936  0.6256  0.2302 -0.2642
 1189ESO    C2a21265   2.544   6.456   3.958  0.1394 -0.0302  0.1849
 1189ESO    H2a21266   2.627   6.396   3.970 -0.0290  1.3773 -0.4034
 1189ESO    H2a21267   2.567   6.545   4.016 -1.2740  0.0064 -0.5447
 1189ESO    H2a21268   2.539   6.490   3.855 -1.6789  1.5625  3.1080
 1190ESO     O121269   4.727   3.362   4.456  0.3252 -0.5060  0.3274
 1190ESO     O121270   4.549   3.337   4.620 -0.6460 -0.4444 -0.1482
 1190ESO     O121271   4.668   3.150   4.556 -0.1748 -0.1422 -0.6123
 1190ESO      S21272   4.673   3.294   4.570 -0.1629  0.0722  0.2400
 1190ESO     O221273   4.772   3.326   4.689 -0.2523  1.1286 -0.3460
 1190ESO    C1a21274   4.910   3.279   4.682 -0.5260 -0.5079 -0.0400
 1190ESO    H1a21275   4.938   3.251   4.579 -0.0991  0.6968 -1.4871
 1190ESO    H1a21276   4.973   3.364   4.714  0.3145 -0.0991  1.0206
 1190ESO    C2a21277   4.925   3.171   4.786  0.5045  0.2729  0.4345
 1190ESO    H2a21278   4.859   3.088   4.767  4.4572 -1.7357  0.9682
 1190ESO    H2a21279   4.884   3.218   4.875  1.0845  1.7540 -3.8784
 1190ESO    H2a21280   5.030   3.139   4.792 -0.4431  1.0913 -1.4317
 1191ESO     O121281   0.832   0.233   4.193 -0.3710 -0.3926  0.8544
 1191ESO     O121282   0.682   0.396   4.110 -0.1513  0.3134  0.2977
 1191ESO     O121283   0.637   0.162   4.079 -0.0330 -0.6818  1.2109
 1191ESO      S21284   0.696   0.265   4.164 -0.1167 -0.1300 -0.0894
 1191ESO     O221285   0.611   0.261   4.303 -0.1262 -0.1490 -0.6774
 1191ESO    C1a21286   0.630   0.371   4.398 -1.0182  0.5719  0.1489
 1191ESO    H1a21287   0.712   0.434   4.370 -0.2600  1.2070  0.6626
 1191ESO    H1a21288   0.545   0.434   4.394 -0.7582  0.4545  0.3465
 1191ESO    C2a21289   0.641   0.327   4.539 -0.2757  0.0236 -0.3349
 1191ESO    H2a21290   0.557   0.274   4.571  1.8384 -0.6172  0.5236
 1191ESO    H2a21291   0.659   0.411   4.606  0.1170 -1.4813 -2.4900
 1191ESO    H2a21292   0.721   0.251   4.552 -0.6939  0.2794  1.9195
 1192ESO     O121293   1.129   5.162   5.774 -0.0348 -0.1730  0.0792
 1192ESO     O121294   1.177   5.179   6.012 -0.3132 -0.0523  0.0345
 1192ESO     O121295   1.067   5.350   5.888 -0.1470  0.3277  0.0279
 1192ESO      S21296   1.084   5.209   5.904 -0.2002  0.2975 -0.2351
 1192ESO     O221297   0.943   5.149   5.929 -0.4447 -0.5778 -0.4810
 1192ESO    C1a21298   0.891   5.169   6.068  1.0858  0.7800  0.0801
 1192ESO    H1a21299   0.859   5.072   6.099  1.7834 -2.6348  0.4561
 1192ESO    H1a21300   0.971   5.202   6.131 -0.3544 -0.4142 -1.9017
 1192ESO    C2a21301   0.776   5.267   6.081  0.1122  0.6156  0.4829
 1192ESO    H2a21302   0.713   5.241   6.169  1.5086 -0.3746 -0.3906
 1192ESO    H2a21303   0.714   5.259   5.993  3.9425  1.2419  2.1058
 1192ESO    H2a21304   0.806   5.367   6.077  1.6765 -1.1292 -0.1032
 1193ESO     O121305   3.003   1.199   6.284 -0.0172 -0.2656  0.4756
 1193ESO     O121306   3.092   1.406   6.236  0.1509 -0.0468 -0.1955
 1193ESO     O121307   3.121   1.323   6.450 -0.1912 -0.7936  0.1539
 1193ESO      S21308   3.109   1.290   6.309 -0.0892 -0.3166  0.0371
 1193ESO     O221309   3.242   1.218   6.263 -0.4533 -0.9490 -0.0476
 1193ESO    C1a21310   3.362   1.286   6.282 -1.4487 -0.6128 -0.1012
 1193ESO    H1a21311   3.345   1.382   6.336 -1.9691 -1.2885  2.0213
 1193ESO    H1a21312   3.425   1.228   6.349  0.6422 -0.6042 -0.8678
 1193ESO    C2a21313   3.436   1.297   6.149 -0.4415 -0.2454 -0.2959
 1193ESO    H2a21314   3.533   1.345   6.159  0.2040 -0.8367 -0.2320
 1193ESO    H2a21315   3.378   1.366   6.075  1.1154  0.4065  1.3025
 1193ESO    H2a21316   3.432   1.197   6.102 -0.1777  0.8379  0.4748
 1194ESO     O121317   0.905   2.833   6.280  0.3241  0.4568  0.1928
 1194ESO     O121318   0.843   3.023   6.138 -0.2868 -0.0079  0.1741
 1194ESO     O121319   1.074   2.989   6.192 -0.4735 -0.4479 -0.0757
 1194ESO      S21320   0.945   2.923   6.172 -0.0391  0.1817 -0.5160
 1194ESO     O221321   0.952   2.825   6.048  0.8897 -0.3302 -0.3977
 1194ESO    C1a21322   0.983   2.887   5.922 -0.9109  0.2570  0.4468
 1194ESO    H1a21323   0.996   2.992   5.927 -0.5689 -0.7866  1.1152
 1194ESO    H1a21324   1.081   2.855   5.888 -3.4319 -0.4186 -0.2317
 1194ESO    C2a21325   0.885   2.857   5.804  0.1349  0.0960 -0.8366
 1194ESO    H2a21326   0.782   2.891   5.834  1.1340  0.0768 -1.6708
 1194ESO    H2a21327   0.888   2.752   5.782 -0.6607  1.6692 -2.1795
 1194ESO    H2a21328   0.920   2.914   5.715  0.5080  2.4682  0.7263
 1195ESO     O121329   3.578   3.370   1.391 -0.2641  0.1679  0.3144
 1195ESO     O121330   3.495   3.349   1.622 -0.7769  0.0231 -0.5924
 1195ESO     O121331   3.406   3.210   1.442 -0.0829 -0.5726 -0.0863
 1195ESO      S21332   3.518   3.289   1.491  0.0593 -0.2571  0.2604
 1195ESO     O221333   3.629   3.172   1.527  0.0454  0.2222 -0.2871
 1195ESO    C1a21334   3.767   3.205   1.552 -0.1356  1.0987 -0.2888
 1195ESO    H1a21335   3.807   3.275   1.483  1.1943 -1.9996  0.2299
 1195ESO    H1a21336   3.771   3.257   1.652 -1.9497 -0.0591 -0.2573
 1195ESO    C2a21337   3.837   3.069   1.545  0.7096 -0.3386  0.1558
 1195ESO    H2a21338   3.941   3.069   1.582 -0.1339  2.9379  0.3418
 1195ESO    H2a21339   3.832   3.024   1.439  2.3092  2.5603 -5.1279
 1195ESO    H2a21340   3.786   2.998   1.598  2.8263  0.7761  0.0784
 1196ESO     O121341   3.771   3.463   2.391  0.4260 -0.1692 -0.0220
 1196ESO     O121342   3.573   3.551   2.292  0.1989  0.0046  0.1163
 1196ESO     O121343   3.713   3.419   2.163  0.4200 -0.4582 -0.3884
 1196ESO      S21344   3.664   3.446   2.294 -0.1790  0.3420 -0.2360
 1196ESO     O221345   3.587   3.312   2.334  0.4496 -0.1652 -0.3620
 1196ESO    C1a21346   3.674   3.195   2.343  0.7797  0.3892 -0.8452
 1196ESO    H1a21347   3.771   3.196   2.292  0.6661 -0.2036 -1.2259
 1196ESO    H1a21348   3.692   3.169   2.445 -2.5647 -0.0058 -0.1757
 1196ESO    C2a21349   3.579   3.085   2.286  0.5228  0.3005  0.3396
 1196ESO    H2a21350   3.481   3.101   2.325  2.0658  0.9183  0.3331
 1196ESO    H2a21351   3.621   2.992   2.313  1.3276  0.8246  0.6234
 1196ESO    H2a21352   3.568   3.101   2.181 -0.2403  0.9234  1.3849
 1197ESO     O121353   6.311   4.014   0.546  0.0499 -0.4399  0.5153
 1197ESO     O121354   6.155   4.163   0.655 -0.0130 -0.4039  0.0174
 1197ESO     O121355   6.367   4.110   0.755 -0.0680 -0.1731  0.2543
 1197ESO      S21356   6.292   4.126   0.631 -0.0260  0.2365  0.0935
 1197ESO     O221357   6.374   4.244   0.562  0.1244 -0.1419  0.4253
 1197ESO    C1a21358   6.291   4.319   0.463  0.6726  0.4298  0.3772
 1197ESO    H1a21359   6.260   4.240   0.392  2.0550 -0.0201 -3.0291
 1197ESO    H1a21360   6.202   4.372   0.503 -3.3101  0.8080  2.4852
 1197ESO    C2a21361   6.373   4.413   0.382 -0.0803  0.5635  0.4632
 1197ESO    H2a21362   6.442   4.359   0.321 -2.3242  1.6053 -1.1305
 1197ESO    H2a21363   6.432   4.480   0.447  1.8741 -2.3175 -4.3586
 1197ESO    H2a21364   6.322   4.477   0.308 -0.2645  2.2770  0.7150
 1198ESO     O121365   3.517   0.056   3.824 -0.1474 -0.3669  0.2652
 1198ESO     O121366   3.608  -0.072   3.647 -0.1824 -0.2718 -0.1296
 1198ESO     O121367   3.614  -0.152   3.879  0.4304 -0.3993 -0.4224
 1198ESO      S21368   3.549  -0.077   3.779  0.0199  0.5602 -0.3218
 1198ESO     O221369   3.412  -0.146   3.765 -0.5610 -0.8026  0.4900
 1198ESO    C1a21370   3.323  -0.092   3.669  0.7947 -0.1122 -0.0576
 1198ESO    H1a21371   3.307   0.011   3.703  1.5552  1.7440  0.6540
 1198ESO    H1a21372   3.376  -0.095   3.568  0.1562  0.8867  2.9145
 1198ESO    C2a21373   3.191  -0.167   3.667  0.2542 -0.6074 -0.6613
 1198ESO    H2a21374   3.132  -0.149   3.579  0.5730 -2.0387 -2.2238
 1198ESO    H2a21375   3.140  -0.149   3.753  3.5887  1.2554 -0.0738
 1198ESO    H2a21376   3.228  -0.270   3.666 -2.5091  1.9779  0.4094
 1199ESO     O121377   0.327   4.572   1.098 -0.1035 -0.2996 -0.3301
 1199ESO     O121378   0.163   4.568   0.920  0.3464  0.4393  0.5762
 1199ESO     O121379   0.097   4.630   1.136  0.6656 -0.3962  0.3961
 1199ESO      S21380   0.203   4.631   1.041 -0.0207  0.2194 -0.1265
 1199ESO     O221381   0.218   4.785   1.008 -0.4035  0.3042 -0.6380
 1199ESO    C1a21382   0.284   4.877   1.088 -0.4915 -0.0619 -0.3848
 1199ESO    H1a21383   0.215   4.898   1.175 -2.2026 -1.3367 -0.6117
 1199ESO    H1a21384   0.381   4.836   1.124 -1.8311 -0.1833  0.9772
 1199ESO    C2a21385   0.303   5.008   1.013  0.0363 -0.0559  0.4884
 1199ESO    H2a21386   0.384   4.998   0.947 -1.6217 -3.8444 -0.1115
 1199ESO    H2a21387   0.327   5.094   1.077 -0.7668  0.9225 -0.7308
 1199ESO    H2a21388   0.213   5.027   0.953 -0.4002 -0.1107 -0.5541
 1200ESO     O121389   5.370   5.094   2.016 -0.0880 -0.3133 -0.0329
 1200ESO     O121390   5.301   4.958   1.838 -0.3890  0.0557  0.0256
 1200ESO     O121391   5.424   4.855   2.013  0.3798 -0.0519  0.2110
 1200ESO      S21392   5.332   4.962   1.978  0.3939 -0.4447 -0.2974
 1200ESO     O221393   5.201   4.917   2.053  0.4115 -0.0203 -1.1350
 1200ESO    C1a21394   5.177   4.952   2.194  0.0362 -0.1890  0.6784
 1200ESO    H1a21395   5.225   4.886   2.265 -1.4233  0.2054  1.1461
 1200ESO    H1a21396   5.217   5.050   2.212  2.1584 -1.0685 -1.1183
 1200ESO    C2a21397   5.026   4.956   2.206 -0.7765  0.3028 -0.5666
 1200ESO    H2a21398   4.988   4.858   2.232  1.9629  3.1880  2.6038
 1200ESO    H2a21399   4.979   5.003   2.125  0.0993 -0.9836  0.8811
 1200ESO    H2a21400   5.005   5.021   2.287 -0.6143  2.4210 -0.3759
 1201ESO     O121401   5.953   5.317   0.125  0.3487 -0.1866  0.7696
 1201ESO     O121402   6.118   5.322  -0.041 -0.5813  0.3902  0.3203
 1201ESO     O121403   6.154   5.184   0.149  0.0027 -0.6360 -0.1182
 1201ESO      S21404   6.060   5.246   0.059  0.1935  0.3304 -0.1128
 1201ESO     O221405   5.988   5.119  -0.013 -0.0138  0.1793 -0.1770
 1201ESO    C1a21406   6.074   5.034  -0.102  0.6040 -0.2234  0.2774
 1201ESO    H1a21407   6.104   5.098  -0.185 -1.1721  2.4895  1.0799
 1201ESO    H1a21408   6.162   4.996  -0.053  2.2951 -2.4735 -1.7393
 1201ESO    C2a21409   5.991   4.916  -0.157 -0.0008 -0.2630  0.0413
 1201ESO    H2a21410   5.895   4.952  -0.184 -1.9534 -5.2766  2.6018
 1201ESO    H2a21411   5.959   4.842  -0.083  0.6969 -1.6942 -1.9528
 1201ESO    H2a21412   6.031   4.870  -0.249  0.7106  0.8044  0.7991
 1202ESO     O121413   1.221   0.475   0.056 -0.0200 -0.4331  0.0140
 1202ESO     O121414   1.229   0.468  -0.188  0.0307  0.0553  0.2582
 1202ESO     O121415   1.431   0.459  -0.070  0.7333  0.0795 -0.4266
 1202ESO      S21416   1.287   0.431  -0.065 -0.3412  0.3381  0.6001
 1202ESO     O221417   1.271   0.274  -0.070 -0.5157 -0.1170 -0.2105
 1202ESO    C1a21418   1.326   0.202  -0.182 -0.6553 -0.2273  0.0174
 1202ESO    H1a21419   1.294   0.250  -0.277 -1.4945  1.0355  0.5226
 1202ESO    H1a21420   1.434   0.187  -0.168  2.2469 -0.6938  0.7856
 1202ESO    C2a21421   1.274   0.056  -0.174 -0.7557 -0.4482  0.6441
 1202ESO    H2a21422   1.302   0.009  -0.270  0.6075 -1.7780  0.9268
 1202ESO    H2a21423   1.165   0.040  -0.164 -2.0404  0.3750 -0.5944
 1202ESO    H2a21424   1.332   0.010  -0.096 -1.2389  0.3799 -0.3870
 1203ESO     O121425   5.112   0.546   6.330 -0.6401  0.0688  0.1490
 1203ESO     O121426   4.981   0.433   6.504 -0.2920 -0.0572  0.0451
 1203ESO     O121427   4.922   0.426   6.275 -0.4643 -0.3141  0.2842
 1203ESO      S21428   5.028   0.434   6.369  0.3487  0.1509  0.2446
 1203ESO     O221429   5.122   0.315   6.345 -0.1043  0.5151 -0.5210
 1203ESO    C1a21430   5.059   0.181   6.344  0.7396  0.3969 -0.4886
 1203ESO    H1a21431   4.990   0.169   6.430  0.2822 -0.0563 -2.9895
 1203ESO    H1a21432   4.986   0.169   6.266  1.3888 -1.3893 -1.6816
 1203ESO    C2a21433   5.166   0.075   6.337  0.2551  0.7037  0.3519
 1203ESO    H2a21434   5.213   0.074   6.236 -2.6095  0.0102  0.1146
 1203ESO    H2a21435   5.117  -0.023   6.356  0.3966 -0.8938 -1.7121
 1203ESO    H2a21436   5.237   0.088   6.416 -0.9046  2.3420 -1.0864
 1204ESO     O121437   2.636   3.618   0.294 -0.0523 -0.3607  0.3350
 1204ESO     O121438   2.761   3.427   0.353 -0.4694  0.1485  0.2779
 1204ESO     O121439   2.814   3.556   0.154 -0.6499 -0.4050 -0.0602
 1204ESO      S21440   2.764   3.556   0.292 -0.2075 -0.2909 -0.0100
 1204ESO     O221441   2.858   3.647   0.373 -0.4654 -0.5676  0.1063
 1204ESO    C1a21442   2.837   3.666   0.511 -0.6487 -0.2179 -0.4859
 1204ESO    H1a21443   2.726   3.680   0.535 -2.1834  1.4686  2.7557
 1204ESO    H1a21444   2.876   3.575   0.561 -0.9463  0.5126  1.4912
 1204ESO    C2a21445   2.916   3.788   0.557  0.5025  0.5325 -0.1790
 1204ESO    H2a21446   2.977   3.836   0.486 -1.7183 -2.1207  2.3711
 1204ESO    H2a21447   2.985   3.751   0.636  0.1978  0.3691 -1.8050
 1204ESO    H2a21448   2.857   3.860   0.602 -1.1324 -2.4260 -0.4811
 1205ESO     O121449   6.388   6.496   2.364  1.3038 -0.1300 -0.8180
 1205ESO     O121450   6.339   6.621   2.566  0.2937 -0.2296 -0.1394
 1205ESO     O121451   6.512   6.691   2.415 -0.5032  0.8926  0.1202
 1205ESO      S21452   6.385   6.628   2.426 -0.3675  0.0590 -0.0490
 1205ESO     O221453   6.281   6.715   2.342 -0.3988  0.2963  0.7057
 1205ESO    C1a21454   6.297   6.731   2.195  0.3401 -0.4027 -0.1311
 1205ESO    H1a21455   6.403   6.748   2.176 -2.8039 -0.6027  1.5953
 1205ESO    H1a21456   6.262   6.638   2.141  0.1808 -1.5227  0.9350
 1205ESO    C2a21457   6.212   6.841   2.131  0.0070 -0.4101  0.2887
 1205ESO    H2a21458   6.239   6.941   2.171  0.0762  2.0552 -4.0886
 1205ESO    H2a21459   6.115   6.818   2.169  0.4403 -1.6832 -2.6455
 1205ESO    H2a21460   6.209   6.846   2.023  1.1729  0.4613 -3.0992
 1206ESO     O121461   0.454   4.280   4.310  0.3973  0.1011  0.7520
 1206ESO     O121462   0.305   4.093   4.350 -0.3226  0.0055 -0.1803
 1206ESO     O121463   0.255   4.313   4.439 -0.0027 -0.6699 -0.2924
 1206ESO      S21464   0.318   4.237   4.334  0.2787  0.3305  0.1409
 1206ESO     O221465   0.231   4.273   4.202  0.3332 -0.3481 -0.0589
 1206ESO    C1a21466   0.085   4.267   4.218  0.2943 -0.2665 -0.7000
 1206ESO    H1a21467   0.054   4.174   4.257 -0.2815 -0.7981  0.6094
 1206ESO    H1a21468   0.036   4.338   4.289  2.0743 -1.7979 -0.7132
 1206ESO    C2a21469   0.035   4.301   4.081  0.2084  0.4903 -0.3041
 1206ESO    H2a21470  -0.071   4.298   4.084 -1.2155 -1.5124 -1.3382
 1206ESO    H2a21471   0.071   4.222   4.011  0.5837 -0.2021  1.4348
 1206ESO    H2a21472   0.076   4.405   4.059 -0.6417  0.5160  0.0085
 1207ESO     O121473   0.722   2.835   5.146  0.4308 -0.2350 -0.0195
 1207ESO     O121474   0.622   2.887   4.933  0.3832 -0.0822 -0.5011
 1207ESO     O121475   0.860   2.912   4.971  0.3672 -0.3821 -0.1983
 1207ESO      S21476   0.737   2.841   5.006  0.0631  0.0987  0.4443
 1207ESO     O221477   0.760   2.686   4.966  0.1570  0.0709  0.4581
 1207ESO    C1a21478   0.644   2.598   4.968  0.3585  0.1187  0.5639
 1207ESO    H1a21479   0.606   2.573   5.064  0.1844 -1.8069  0.0746
 1207ESO    H1a21480   0.566   2.650   4.918  1.3474  0.0631  0.4394
 1207ESO    C2a21481   0.673   2.475   4.880 -0.1084  0.4738 -0.3481
 1207ESO    H2a21482   0.569   2.436   4.860  1.1453  2.0710  1.5724
 1207ESO    H2a21483   0.732   2.401   4.935  1.3210  2.0083  0.7823
 1207ESO    H2a21484   0.711   2.501   4.778 -0.2045  3.7383 -1.2504
 1208ESO     O121485   4.494   4.341   5.170 -0.5494  0.1320 -0.3251
 1208ESO     O121486   4.496   4.574   5.179 -0.0717 -0.0401 -0.1305
 1208ESO     O121487   4.360   4.460   5.015  0.3567 -0.4746  0.1664
 1208ESO      S21488   4.420   4.459   5.146  0.0259  0.2219  0.2544
 1208ESO     O221489   4.304   4.459   5.247 -0.3042  0.7932  0.0161
 1208ESO    C1a21490   4.343   4.452   5.384  0.0103 -0.4758  0.0811
 1208ESO    H1a21491   4.297   4.366   5.427  1.3427 -0.0354 -2.0570
 1208ESO    H1a21492   4.450   4.460   5.399  0.2554 -2.0587  2.3826
 1208ESO    C2a21493   4.279   4.569   5.457 -0.5260  0.1296  0.3885
 1208ESO    H2a21494   4.329   4.612   5.542  0.0661  1.7252  1.1034
 1208ESO    H2a21495   4.173   4.545   5.484 -0.2737  0.7542  1.0806
 1208ESO    H2a21496   4.273   4.655   5.387 -1.5728  0.2136 -0.9270
 1209ESO     O121497   5.719   1.642   4.671  0.3168  0.1020  0.3783
 1209ESO     O121498   5.713   1.652   4.901  0.0270 -0.4078 -0.1070
 1209ESO     O121499   5.630   1.453   4.787  0.3317 -0.0038 -0.6516
 1209ESO      S21500   5.725   1.565   4.788 -0.0775  0.0313 -0.0385
 1209ESO     O221501   5.873   1.501   4.794 -0.0102 -0.2605 -0.0195
 1209ESO    C1a21502   5.991   1.562   4.735  0.5211  0.0415 -0.0171
 1209ESO    H1a21503   6.061   1.479   4.705  0.2350 -0.3255 -2.2650
 1209ESO    H1a21504   5.963   1.632   4.653 -0.8751 -2.5723  0.4257
 1209ESO    C2a21505   6.075   1.638   4.838  0.7878 -0.1465  0.0042
 1209ESO    H2a21506   6.163   1.677   4.789  0.3521  0.0313  0.7144
 1209ESO    H2a21507   6.098   1.561   4.913  0.3077 -1.7488  1.0338
 1209ESO    H2a21508   6.024   1.721   4.890  2.1242 -1.0418 -2.1259
 1210ESO     O121509   6.726   1.579   3.466 -0.1518 -0.1606  0.1466
 1210ESO     O121510   6.882   1.546   3.294 -0.6107 -0.1782 -0.5802
 1210ESO     O121511   6.737   1.730   3.286  0.1439 -0.2786  0.2972
 1210ESO      S21512   6.810   1.640   3.371  0.3545  0.4287 -0.0166
 1210ESO     O221513   6.926   1.721   3.445  0.0974 -0.6030  0.2552
 1210ESO    C1a21514   6.900   1.836   3.526  0.3007  0.3637 -0.2420
 1210ESO    H1a21515   6.805   1.878   3.486 -2.6655 -1.0427 -0.5163
 1210ESO    H1a21516   6.888   1.804   3.626 -1.3305  0.5041 -3.1718
 1210ESO    C2a21517   7.001   1.941   3.497 -0.9483 -0.1891 -0.0962
 1210ESO    H2a21518   6.976   2.025   3.562 -0.1790  2.5626  0.6196
 1210ESO    H2a21519   6.990   1.973   3.395 -2.2030 -1.9524 -0.7778
 1210ESO    H2a21520   7.103   1.905   3.518 -0.2070 -1.4616 -4.1354
 1211ESO     O121521   0.909   0.145   2.010 -1.0538  0.1151 -0.6195
 1211ESO     O121522   0.744  -0.023   2.031 -0.2204 -0.7241  0.2618
 1211ESO     O121523   0.916  -0.051   1.867  0.0127  0.2906  0.1885
 1211ESO      S21524   0.879   0.003   1.996 -0.3561  0.2800 -0.2319
 1211ESO     O221525   0.980  -0.069   2.105  0.4074  0.1099  0.1267
 1211ESO    C1a21526   0.971  -0.220   2.109 -0.4498  0.0118  0.0703
 1211ESO    H1a21527   0.867  -0.248   2.114  3.3452 -1.6089  0.8283
 1211ESO    H1a21528   1.023  -0.269   2.031 -2.2103  0.4856  2.2367
 1211ESO    C2a21529   1.034  -0.255   2.238  0.9222  0.1857  0.8014
 1211ESO    H2a21530   1.136  -0.229   2.246  1.7661 -3.3692  2.7125
 1211ESO    H2a21531   1.034  -0.363   2.261 -0.3854  0.2996 -0.7335
 1211ESO    H2a21532   0.980  -0.200   2.320 -2.7423  1.7083  0.9466
 1212ESO     O121533   6.231   0.169   3.169 -0.4581 -0.2662 -0.1200
 1212ESO     O121534   6.023   0.234   3.270 -0.8322  0.0710 -0.2062
 1212ESO     O121535   6.213   0.372   3.293 -0.2059 -0.1040  1.0350
 1212ESO      S21536   6.145   0.274   3.213  0.1077  0.5465 -0.0071
 1212ESO     O221537   6.087   0.349   3.083  0.7059 -0.7139 -0.0302
 1212ESO    C1a21538   6.182   0.382   2.976 -0.0878 -0.4171 -0.5372
 1212ESO    H1a21539   6.256   0.304   2.961  1.3085  1.3861  0.0240
 1212ESO    H1a21540   6.126   0.390   2.883  0.4080  0.3414 -2.2354
 1212ESO    C2a21541   6.233   0.518   2.992 -0.3853 -0.5901 -0.2640
 1212ESO    H2a21542   6.307   0.516   3.076 -2.1967 -0.2344  1.1457
 1212ESO    H2a21543   6.161   0.601   3.006 -1.8392 -1.2527 -0.6264
 1212ESO    H2a21544   6.284   0.541   2.899  1.7755 -1.5735  0.4433
 1213ESO     O121545   4.422   0.584   5.191  1.1278 -0.9844 -0.1569
 1213ESO     O121546   4.551   0.413   5.297 -0.3563 -0.6627 -0.0025
 1213ESO     O121547   4.591   0.478   5.068 -0.2521 -0.3614 -0.2857
 1213ESO      S21548   4.549   0.518   5.198  0.2282 -0.0285  0.2018
 1213ESO     O221549   4.659   0.619   5.233  0.0363  0.3386 -0.2409
 1213ESO    C1a21550   4.663   0.752   5.187 -0.8128 -0.1891 -0.4309
 1213ESO    H1a21551   4.770   0.782   5.172 -1.3794  1.4197  0.7167
 1213ESO    H1a21552   4.610   0.766   5.100  0.4910 -0.1215 -0.4524
 1213ESO    C2a21553   4.613   0.850   5.294  0.1236 -0.6781  0.5662
 1213ESO    H2a21554   4.671   0.822   5.385  1.2231  2.1809  1.0513
 1213ESO    H2a21555   4.501   0.843   5.310  3.2339 -0.3457  1.4567
 1213ESO    H2a21556   4.645   0.951   5.260 -0.5121 -1.4430  1.6304
 1214ESO     O121557   1.164   4.221   3.559 -0.6870  0.3090 -0.0825
 1214ESO     O121558   0.984   4.202   3.405 -0.4170  1.1196 -0.6183
 1214ESO     O121559   1.003   4.050   3.594 -0.2569 -0.0304  0.0243
 1214ESO      S21560   1.028   4.181   3.540 -0.2515 -0.2996 -0.3036
 1214ESO     O221561   0.951   4.276   3.629 -0.1645  0.2918 -0.1087
 1214ESO    C1a21562   0.981   4.264   3.777 -0.1581 -0.4108 -0.1981
 1214ESO    H1a21563   0.931   4.172   3.805  2.1351  1.6525 -4.0656
 1214ESO    H1a21564   1.086   4.259   3.795 -0.6246  0.2909 -0.5417
 1214ESO    C2a21565   0.925   4.392   3.834 -0.6311  0.3922  0.3166
 1214ESO    H2a21566   0.946   4.487   3.783  0.0998 -0.3167  0.0254
 1214ESO    H2a21567   0.963   4.401   3.935 -1.0406 -0.4661 -1.4983
 1214ESO    H2a21568   0.818   4.384   3.841 -0.0823  1.9843  0.4005
 1215ESO     O121569   0.253   1.245   3.106  0.0621 -0.4093 -0.1634
 1215ESO     O121570   0.420   1.397   3.023 -0.0676 -0.3640  0.7157
 1215ESO     O121571   0.483   1.245   3.182  0.1922  0.3894 -0.1792
 1215ESO      S21572   0.390   1.266   3.078 -0.1695  0.1795  0.2163
 1215ESO     O221573   0.430   1.164   2.950  0.0794 -0.2715 -0.3325
 1215ESO    C1a21574   0.373   1.036   2.945 -0.2557  0.2105 -0.2208
 1215ESO    H1a21575   0.399   0.983   3.041 -1.3501 -1.0325 -0.3751
 1215ESO    H1a21576   0.269   1.047   2.939  0.3518  1.2840 -1.8185
 1215ESO    C2a21577   0.425   0.973   2.816  0.5104 -0.1383 -0.5438
 1215ESO    H2a21578   0.413   1.037   2.726 -0.1658 -0.5701  2.0449
 1215ESO    H2a21579   0.371   0.881   2.794  0.6420  1.5539  0.3971
 1215ESO    H2a21580   0.528   0.949   2.830  0.9056  0.7350  2.5336
 1216ESO     O121581   2.997   0.119   2.956  0.2647 -0.2426 -0.4302
 1216ESO     O121582   2.971   0.033   3.180 -0.1228  0.1749  0.4250
 1216ESO     O121583   2.790   0.028   3.027 -0.1111 -0.4594 -0.3878
 1216ESO      S21584   2.933   0.023   3.040 -0.2901 -0.3436  0.7401
 1216ESO     O221585   2.984  -0.110   2.981  0.2861  0.2191  0.1286
 1216ESO    C1a21586   2.959  -0.231   3.059  0.6039  0.4671 -0.1235
 1216ESO    H1a21587   3.022  -0.240   3.149  0.2509 -0.2435  1.5136
 1216ESO    H1a21588   2.855  -0.223   3.087  1.6941 -0.7046 -1.7095
 1216ESO    C2a21589   2.973  -0.358   2.974 -0.9899 -0.0660  0.4710
 1216ESO    H2a21590   2.949  -0.453   3.033  0.2893 -0.1571 -1.6217
 1216ESO    H2a21591   3.079  -0.362   2.940 -1.3459 -0.0299 -1.0529
 1216ESO    H2a21592   2.904  -0.352   2.883 -1.0939 -0.1671 -2.9920
 1217ESO     O121593   4.423   0.336   4.229  0.1583  0.2558  0.2858
 1217ESO     O121594   4.314   0.452   4.398  0.1958 -0.0552  0.2777
 1217ESO     O121595   4.325   0.211   4.406  0.5588  0.1252 -0.3027
 1217ESO      S21596   4.387   0.337   4.367  0.3301 -0.1464  0.3541
 1217ESO     O221597   4.526   0.350   4.436 -0.3402  0.1527  0.1681
 1217ESO    C1a21598   4.547   0.346   4.580 -0.7400  0.3883 -0.1148
 1217ESO    H1a21599   4.459   0.323   4.634 -0.9112 -0.8694  0.3654
 1217ESO    H1a21600   4.625   0.279   4.595 -2.6691  1.0729 -1.3251
 1217ESO    C2a21601   4.575   0.482   4.639 -0.1416 -0.9183  0.1680
 1217ESO    H2a21602   4.500   0.556   4.610 -2.3593  1.3010  0.7610
 1217ESO    H2a21603   4.670   0.519   4.596  0.2841  0.0865  2.2681
 1217ESO    H2a21604   4.574   0.479   4.750 -0.2183 -1.6792  2.7783
 1218ESO     O121605   6.669   3.530   2.068  0.3332  0.2024  0.0412
 1218ESO     O121606   6.689   3.553   1.826 -0.2406  0.0115  0.0173
 1218ESO     O121607   6.705   3.334   1.927  0.0743  0.2097  0.0214
 1218ESO      S21608   6.657   3.468   1.937 -0.1273 -0.0831  0.4048
 1218ESO     O221609   6.497   3.445   1.923  0.3965 -0.5871 -0.5553
 1218ESO    C1a21610   6.441   3.394   1.799 -0.5045 -0.2881 -0.7302
 1218ESO    H1a21611   6.356   3.452   1.758  0.7231  2.2855 -3.6527
 1218ESO    H1a21612   6.512   3.411   1.721 -1.2648 -1.4632  1.1245
 1218ESO    C2a21613   6.409   3.243   1.811 -0.3341 -0.2605  0.4481
 1218ESO    H2a21614   6.383   3.194   1.719 -0.1732 -1.0223 -0.0436
 1218ESO    H2a21615   6.334   3.212   1.883 -0.2477  1.3779 -1.2701
 1218ESO    H2a21616   6.501   3.182   1.835  0.3301 -0.4918 -0.6936
 1219ESO     O121617   4.930   1.292   4.583 -0.2647 -0.6972  0.2485
 1219ESO     O121618   4.899   1.526   4.626  0.0127  0.8481  0.0042
 1219ESO     O121619   4.959   1.453   4.408  0.2416  0.0420 -0.4125
 1219ESO      S21620   4.892   1.422   4.533  0.3069 -0.2615 -0.3369
 1219ESO     O221621   4.738   1.416   4.506 -0.0711  0.0834 -0.3851
 1219ESO    C1a21622   4.663   1.525   4.445  0.4564 -0.0892 -0.6156
 1219ESO    H1a21623   4.595   1.552   4.523 -0.0248  0.4606 -0.8784
 1219ESO    H1a21624   4.730   1.609   4.411 -0.2918  0.2863 -0.1864
 1219ESO    C2a21625   4.589   1.465   4.323 -0.2610 -0.2417  0.0176
 1219ESO    H2a21626   4.646   1.443   4.236 -0.6195  0.3700 -1.2459
 1219ESO    H2a21627   4.512   1.526   4.288 -2.1530  0.8566  0.1835
 1219ESO    H2a21628   4.550   1.363   4.339 -1.7573  0.3196 -1.1603
 1220ESO     O121629   3.104   1.597   1.659  0.3622 -0.2686 -0.5041
 1220ESO     O121630   2.910   1.484   1.596  0.2032  0.8073  0.0817
 1220ESO     O121631   2.907   1.723   1.599 -0.1381  0.1703  0.2141
 1220ESO      S21632   2.985   1.603   1.578  0.1146  0.5031 -0.1923
 1220ESO     O221633   3.031   1.599   1.426 -0.2616  0.6255 -0.6188
 1220ESO    C1a21634   3.119   1.702   1.385 -0.4963 -0.2013  0.4186
 1220ESO    H1a21635   3.057   1.774   1.345 -0.7566  0.3522  1.1203
 1220ESO    H1a21636   3.187   1.732   1.471  1.5447  0.1672  2.4228
 1220ESO    C2a21637   3.200   1.658   1.267  0.4753  0.3080 -0.1692
 1220ESO    H2a21638   3.261   1.568   1.294  2.6630  0.6177 -1.1579
 1220ESO    H2a21639   3.275   1.727   1.222 -1.6165  0.0149 -1.4199
 1220ESO    H2a21640   3.140   1.619   1.183 -1.1326 -4.3185 -0.3203
 1221ESO     O121641   0.765   6.039   2.158  0.5638 -0.2371 -0.4467
 1221ESO     O121642   0.701   6.165   2.343 -0.4616  0.2718 -0.4163
 1221ESO     O121643   0.911   6.206   2.243 -0.2184  0.1662 -0.2124
 1221ESO      S21644   0.774   6.165   2.220 -0.0421 -0.3363 -0.1179
 1221ESO     O221645   0.707   6.272   2.131 -0.1539  0.7153  0.1283
 1221ESO    C1a21646   0.795   6.321   2.027  0.3313  0.2625 -0.3396
 1221ESO    H1a21647   0.887   6.370   2.068  1.5872 -1.8214  0.5823
 1221ESO    H1a21648   0.830   6.232   1.968  2.2030 -1.7141 -0.1383
 1221ESO    C2a21649   0.706   6.410   1.941 -0.3703  0.1521  0.8622
 1221ESO    H2a21650   0.771   6.448   1.868 -2.7351 -1.3345  0.4094
 1221ESO    H2a21651   0.665   6.491   1.997  0.7381 -0.2463  0.6342
 1221ESO    H2a21652   0.624   6.352   1.889 -0.3131  1.1078 -1.9490
 1222ESO     O121653   6.765   2.864   0.152  0.6990  0.4845  0.1638
 1222ESO     O121654   6.574   2.790   0.285 -0.2059 -0.2152 -0.0966
 1222ESO     O121655   6.798   2.734   0.344 -0.3403 -0.0980 -0.0592
 1222ESO      S21656   6.716   2.828   0.281 -0.0326 -0.0786  0.0879
 1222ESO     O221657   6.723   2.958   0.370  0.1612  0.7382 -0.4445
 1222ESO    C1a21658   6.853   3.024   0.391  0.1347  0.0181  0.6577
 1222ESO    H1a21659   6.913   2.962   0.460  2.1438 -0.2372  0.5318
 1222ESO    H1a21660   6.905   3.032   0.299  2.3613  0.6903 -0.8797
 1222ESO    C2a21661   6.822   3.167   0.431  0.1210 -0.1863 -0.1064
 1222ESO    H2a21662   6.748   3.166   0.513 -0.3641 -1.3474 -1.1556
 1222ESO    H2a21663   6.789   3.234   0.350  1.5854  1.9925 -0.7900
 1222ESO    H2a21664   6.916   3.206   0.477  1.6769 -1.2354  0.9534
 1223ESO     O121665   1.045   2.322   2.494 -0.4723  0.1234 -0.0901
 1223ESO     O121666   1.243   2.206   2.446 -0.4115 -0.8300  0.3314
 1223ESO     O121667   1.060   2.178   2.303 -0.1207 -0.2947 -0.2472
 1223ESO      S21668   1.126   2.263   2.392 -0.2937  0.2012 -0.0344
 1223ESO     O221669   1.167   2.389   2.304  0.0387  0.0545 -0.0596
 1223ESO    C1a21670   1.257   2.487   2.367  0.4697 -0.2848 -0.0081
 1223ESO    H1a21671   1.292   2.450   2.465 -0.6602 -1.3542 -1.0915
 1223ESO    H1a21672   1.338   2.503   2.294  1.7565  1.6661 -0.6098
 1223ESO    C2a21673   1.165   2.608   2.380  0.4383 -0.0535  0.3233
 1223ESO    H2a21674   1.066   2.571   2.409  0.6848  1.8616 -0.2580
 1223ESO    H2a21675   1.153   2.656   2.281  1.8875 -2.0281 -1.6334
 1223ESO    H2a21676   1.197   2.687   2.442  0.8113 -0.7680  0.2366
 1224ESO     O121677   3.323   3.846   5.150  0.6950  0.7080 -0.0246
 1224ESO     O121678   3.332   3.605   5.131  0.1805  1.1580 -0.3943
 1224ESO     O121679   3.520   3.726   5.227  0.7677  0.1026  0.0973
 1224ESO      S21680   3.377   3.723   5.209 -0.2346  0.0674 -0.1762
 1224ESO     O221681   3.317   3.724   5.347 -0.2598  0.7926  0.1110
 1224ESO    C1a21682   3.332   3.615   5.440  0.0216  0.5683 -0.3535
 1224ESO    H1a21683   3.239   3.584   5.474  0.4496 -2.2622  2.5571
 1224ESO    H1a21684   3.380   3.533   5.384 -0.4039  2.6084 -2.5113
 1224ESO    C2a21685   3.425   3.673   5.550 -0.5095  0.8718 -0.7645
 1224ESO    H2a21686   3.379   3.759   5.590  0.6068 -0.0375 -1.1685
 1224ESO    H2a21687   3.518   3.699   5.509 -1.0428  1.1057 -1.4208
 1224ESO    H2a21688   3.432   3.598   5.633 -0.0326  0.1688 -0.5473
 1225ESO     O121689   3.956   5.903   4.202 -0.1468  0.0388  0.0912
 1225ESO     O121690   4.081   5.771   4.362 -0.0583  0.3416 -0.3295
 1225ESO     O121691   4.171   5.817   4.150 -0.2141  0.1947 -0.0259
 1225ESO      S21692   4.087   5.862   4.255  0.3310 -0.1602  0.2418
 1225ESO     O221693   4.159   5.990   4.313  0.0591  0.2301 -0.0092
 1225ESO    C1a21694   4.089   6.059   4.423 -0.0528  0.5143  0.2580
 1225ESO    H1a21695   4.000   6.113   4.385  0.3089 -3.4866  0.2189
 1225ESO    H1a21696   4.074   5.984   4.509  2.0495 -4.1795 -0.2394
 1225ESO    C2a21697   4.182   6.175   4.473 -0.0994  0.9778 -0.2993
 1225ESO    H2a21698   4.242   6.227   4.400 -2.9348 -2.7866 -1.0416
 1225ESO    H2a21699   4.268   6.139   4.535 -0.6429 -0.4765 -1.0638
 1225ESO    H2a21700   4.117   6.252   4.525  2.2874 -3.2260  1.4662
 1226ESO     O121701   2.230   2.692   3.901 -0.7202  0.2313  0.0349
 1226ESO     O121702   2.072   2.530   3.986 -0.4675 -0.4142  0.1908
 1226ESO     O121703   2.032   2.761   4.015 -0.5832  0.1882  0.6072
 1226ESO      S21704   2.094   2.662   3.932  0.0867  0.0716  0.5198
 1226ESO     O221705   2.017   2.669   3.794  0.4550  0.0723 -0.2726
 1226ESO    C1a21706   2.078   2.636   3.672  0.2073  0.4775 -0.4972
 1226ESO    H1a21707   2.179   2.664   3.659  0.0874  1.3338 -2.9485
 1226ESO    H1a21708   2.065   2.529   3.657 -2.0121 -2.1366 -0.4583
 1226ESO    C2a21709   1.998   2.706   3.569  0.0343 -0.2458  0.1029
 1226ESO    H2a21710   2.014   2.810   3.573  0.6296 -1.6118  2.4618
 1226ESO    H2a21711   1.893   2.673   3.566 -3.1533  0.4793 -2.8573
 1226ESO    H2a21712   2.039   2.682   3.473 -1.2437  2.0654  0.7800
 1227ESO     O121713   2.750   4.338   4.244  0.0467 -0.0926 -0.5391
 1227ESO     O121714   2.527   4.257   4.266  0.0081  0.1019  0.0840
 1227ESO     O121715   2.574   4.479   4.332  0.1589  0.1130 -0.9194
 1227ESO      S21716   2.611   4.370   4.249  0.2775 -0.0285 -0.1530
 1227ESO     O221717   2.587   4.422   4.100  0.2043  0.1429 -0.1973
 1227ESO    C1a21718   2.597   4.322   3.991  0.0296 -0.2299 -0.4989
 1227ESO    H1a21719   2.696   4.281   3.983 -0.4364 -1.6371 -0.8059
 1227ESO    H1a21720   2.534   4.239   4.017 -2.1026  0.7508  0.0423
 1227ESO    C2a21721   2.548   4.398   3.871 -0.0092 -0.0328  0.9003
 1227ESO    H2a21722   2.612   4.480   3.843  0.4733  0.8325 -1.0160
 1227ESO    H2a21723   2.447   4.441   3.871  1.8877  0.8003 -0.7011
 1227ESO    H2a21724   2.561   4.335   3.782 -2.0181 -0.2410 -0.8392
 1228ESO     O121725   2.454   5.999   1.362  0.3991  0.5365 -0.1632
 1228ESO     O121726   2.688   6.000   1.352 -0.5304 -0.1435  0.4278
 1228ESO     O121727   2.570   5.823   1.471 -0.7531 -0.1290 -0.3811
 1228ESO      S21728   2.573   5.915   1.361  0.2434 -0.2093 -0.3360
 1228ESO     O221729   2.576   5.832   1.229 -0.4099 -0.3825  0.2069
 1228ESO    C1a21730   2.458   5.772   1.181 -0.2252  0.3191 -0.3109
 1228ESO    H1a21731   2.427   5.676   1.224  1.0153  1.4180 -1.3109
 1228ESO    H1a21732   2.374   5.846   1.191 -1.7558  0.7697  0.7665
 1228ESO    C2a21733   2.497   5.736   1.039  0.6137 -0.1703  0.4240
 1228ESO    H2a21734   2.405   5.704   0.998 -1.1497 -2.5053  0.6643
 1228ESO    H2a21735   2.567   5.653   1.031 -1.3746  0.7445  2.6312
 1228ESO    H2a21736   2.527   5.823   0.985  0.6099 -3.0774  2.0061
 1229ESO     O121737   6.397   2.983   4.292 -0.0247 -0.5429  0.3058
 1229ESO     O121738   6.578   2.915   4.157  0.2081 -0.7538  0.3649
 1229ESO     O121739   6.498   3.137   4.151  0.5770 -0.3019 -0.4445
 1229ESO      S21740   6.521   3.023   4.233 -0.0665  0.4057 -0.4477
 1229ESO     O221741   6.620   3.073   4.345 -0.0184  0.1479  0.6126
 1229ESO    C1a21742   6.584   3.168   4.445  0.6073 -0.9946 -0.0331
 1229ESO    H1a21743   6.567   3.256   4.393  2.2115  0.3361 -0.7682
 1229ESO    H1a21744   6.497   3.127   4.497 -0.5316 -1.5549 -1.9851
 1229ESO    C2a21745   6.699   3.182   4.543 -0.8027 -0.1549 -0.2162
 1229ESO    H2a21746   6.659   3.236   4.634 -0.9677 -0.9584 -1.6437
 1229ESO    H2a21747   6.776   3.238   4.506  0.9789 -1.8467  1.1555
 1229ESO    H2a21748   6.732   3.086   4.585  2.2320 -1.2156 -0.4396
 1230ESO     O121749   2.099   6.063   3.298 -0.3085 -0.0930  0.3006
 1230ESO     O121750   2.145   6.234   3.131  0.3334 -0.0469 -0.2640
 1230ESO     O121751   2.319   6.152   3.277 -0.5418 -0.0259 -0.5043
 1230ESO      S21752   2.196   6.124   3.211 -0.0075 -0.0882 -0.2494
 1230ESO     O221753   2.234   6.008   3.107  0.1867  0.6798 -0.0192
 1230ESO    C1a21754   2.319   6.032   2.985 -0.2278 -0.2925  0.1265
 1230ESO    H1a21755   2.378   6.121   3.003 -0.7464  0.0839  0.5115
 1230ESO    H1a21756   2.385   5.940   2.964  0.1706 -2.8232 -0.2890
 1230ESO    C2a21757   2.227   6.039   2.867 -0.1426  0.1251 -0.0982
 1230ESO    H2a21758   2.142   6.111   2.885 -0.8280  0.6971  0.6213
 1230ESO    H2a21759   2.178   5.945   2.843 -1.1942 -0.1051  0.5146
 1230ESO    H2a21760   2.279   6.075   2.782 -0.4558 -0.7518 -0.2439
 1231ESO     O121761   5.325   6.747   0.032 -0.1888  0.3001 -0.3710
 1231ESO     O121762   5.178   6.746  -0.156 -0.3629  0.1616  0.1694
 1231ESO     O121763   5.086   6.737   0.059  0.4131 -0.6745  0.0884
 1231ESO      S21764   5.193   6.781  -0.021 -0.4290 -0.2179 -0.0444
 1231ESO     O221765   5.192   6.938  -0.024  0.1968  0.3090 -1.0354
 1231ESO    C1a21766   5.071   7.002  -0.078  0.0373 -0.3051 -0.5968
 1231ESO    H1a21767   5.100   7.035  -0.173  0.2994 -4.1053  0.0053
 1231ESO    H1a21768   5.000   6.921  -0.090  1.3524 -1.6745 -1.5183
 1231ESO    C2a21769   5.041   7.120   0.015  0.2784  0.1526 -0.1171
 1231ESO    H2a21770   5.117   7.188   0.039 -1.3920 -1.4014  1.5088
 1231ESO    H2a21771   5.008   7.079   0.106 -4.3455  0.1133 -2.0614
 1231ESO    H2a21772   4.948   7.173  -0.029 -2.0536 -0.8380 -0.9846
 1232ESO     O121773   3.413   3.225   3.401 -0.3136  0.3972  0.1195
 1232ESO     O121774   3.333   3.439   3.480  0.6215  0.2024  0.2867
 1232ESO     O121775   3.565   3.379   3.499 -0.1570 -0.1464  0.3132
 1232ESO      S21776   3.443   3.364   3.427  0.1064  0.0205  0.4280
 1232ESO     O221777   3.471   3.422   3.283 -0.0617  0.4301  0.7228
 1232ESO    C1a21778   3.508   3.559   3.272  0.3522  0.3338 -0.4169
 1232ESO    H1a21779   3.439   3.611   3.336 -1.1869 -2.8888  0.1823
 1232ESO    H1a21780   3.610   3.569   3.303  0.1942  2.0198 -0.2832
 1232ESO    C2a21781   3.507   3.603   3.125 -0.0835 -0.1687 -0.4984
 1232ESO    H2a21782   3.401   3.608   3.091  1.7406 -0.8144  0.3899
 1232ESO    H2a21783   3.567   3.528   3.067  1.4098 -1.6191  0.5898
 1232ESO    H2a21784   3.565   3.693   3.117 -0.5042 -0.5773  3.5942
 1233ESO     O121785   5.654   2.074   1.101 -0.6047  0.1805 -0.5180
 1233ESO     O121786   5.732   1.845   1.140  0.1060  0.0780 -0.8744
 1233ESO     O121787   5.781   1.958   0.937  0.0144 -0.0071  0.3973
 1233ESO      S21788   5.757   1.977   1.077 -0.0679  0.3673 -0.0229
 1233ESO     O221789   5.886   2.035   1.138  0.8520  0.0203  0.2820
 1233ESO    C1a21790   6.009   1.961   1.127  0.9834  0.1069 -0.1429
 1233ESO    H1a21791   6.020   1.909   1.221 -3.2713 -1.9159  0.2248
 1233ESO    H1a21792   5.998   1.891   1.050  1.0216  1.7826 -0.0890
 1233ESO    C2a21793   6.117   2.061   1.091  1.1408 -0.2432 -0.1088
 1233ESO    H2a21794   6.221   2.027   1.076  2.1388  0.1692 -1.7125
 1233ESO    H2a21795   6.115   2.142   1.163 -1.2806  0.9887 -0.6718
 1233ESO    H2a21796   6.075   2.113   0.999 -0.3104 -0.4865  0.4328
 1234ESO     O121797   3.821   5.341   6.164 -0.0702  0.0935 -0.5200
 1234ESO     O121798   4.032   5.291   6.070  0.4068 -0.4294 -0.2371
 1234ESO     O121799   3.942   5.517   6.052  0.8858 -0.3540  0.1647
 1234ESO      S21800   3.952   5.393   6.130  0.0363 -0.3552 -0.1944
 1234ESO     O221801   4.014   5.435   6.265  0.1311  0.1157  0.0033
 1234ESO    C1a21802   4.152   5.483   6.273 -0.5059 -0.0819 -0.2740
 1234ESO    H1a21803   4.203   5.421   6.347  1.6739 -0.4032 -3.1676
 1234ESO    H1a21804   4.214   5.469   6.189  2.0001  0.0839  0.9616
 1234ESO    C2a21805   4.151   5.623   6.319 -0.4731 -0.3690 -0.2399
 1234ESO    H2a21806   4.249   5.659   6.346 -0.6278 -0.1669 -0.0531
 1234ESO    H2a21807   4.091   5.634   6.407  0.9291 -1.9271 -0.1285
 1234ESO    H2a21808   4.119   5.690   6.239 -1.7962  0.3192  0.2273
 1235ESO     O121809   4.623   4.593   5.904 -0.4775  0.5520 -0.3871
 1235ESO     O121810   4.465   4.726   5.795 -0.0898  0.3289  0.0919
 1235ESO     O121811   4.553   4.788   6.017 -0.0747 -0.0196  0.1036
 1235ESO      S21812   4.575   4.728   5.889 -0.3298 -0.1309 -0.0468
 1235ESO     O221813   4.694   4.810   5.823 -0.2305  0.6450  0.1063
 1235ESO    C1a21814   4.683   4.955   5.832  0.2049  0.7113  0.1129
 1235ESO    H1a21815   4.604   4.991   5.764 -0.1420 -0.4581  0.5804
 1235ESO    H1a21816   4.657   4.988   5.928 -0.9605  3.0166 -2.7146
 1235ESO    C2a21817   4.810   5.011   5.783  0.4753 -0.5141  0.1986
 1235ESO    H2a21818   4.819   5.008   5.670  1.2668 -1.7015 -0.1661
 1235ESO    H2a21819   4.896   4.953   5.840  2.3397 -1.6840 -0.0104
 1235ESO    H2a21820   4.815   5.114   5.823 -0.6016  0.4727  2.8203
 1236ESO     O121821   2.040   3.186   3.978  0.0732 -0.5881  0.9937
 1236ESO     O121822   2.006   3.299   4.179 -0.3882 -0.5263  0.0243
 1236ESO     O121823   2.084   3.418   3.996 -0.0784  0.3051 -0.0542
 1236ESO      S21824   1.997   3.307   4.039  0.2017 -0.0883  0.0365
 1236ESO     O221825   1.848   3.326   3.985 -0.1810  0.2591  0.1946
 1236ESO    C1a21826   1.779   3.459   3.998 -0.1809  0.4287  0.6361
 1236ESO    H1a21827   1.758   3.480   4.102 -1.3825 -2.8374  0.5992
 1236ESO    H1a21828   1.839   3.540   3.950  0.8141 -1.0988 -1.5300
 1236ESO    C2a21829   1.648   3.433   3.923 -0.1576  0.3169 -0.4696
 1236ESO    H2a21830   1.584   3.522   3.910 -1.3752  0.3536 -0.6773
 1236ESO    H2a21831   1.596   3.358   3.978 -0.3985  0.6729  1.2372
 1236ESO    H2a21832   1.665   3.390   3.821 -2.1775 -0.5017 -1.0154
 1237ESO     O121833   5.798   4.535   1.914  0.1323 -0.1899  0.3350
 1237ESO     O121834   5.843   4.339   1.776 -0.0030 -0.0368 -0.0694
 1237ESO     O121835   5.649   4.339   1.920  0.0081 -0.0523  0.0518
 1237ESO      S21836   5.742   4.422   1.839 -0.0825 -0.4765  0.4466
 1237ESO     O221837   5.656   4.484   1.728 -0.1002 -0.2738  0.7209
 1237ESO    C1a21838   5.554   4.584   1.770  0.1292 -0.3354 -0.2221
 1237ESO    H1a21839   5.471   4.532   1.807  2.0412  1.0661  0.1059
 1237ESO    H1a21840   5.588   4.661   1.837  1.7908 -0.8864 -2.5461
 1237ESO    C2a21841   5.522   4.666   1.639  0.1907 -0.2526 -0.0476
 1237ESO    H2a21842   5.479   4.762   1.675  0.1592 -0.3302  0.6033
 1237ESO    H2a21843   5.449   4.619   1.570  1.7060  0.4634 -1.1818
 1237ESO    H2a21844   5.605   4.692   1.582  0.8659  2.6034  1.5669
 1238ESO     O121845   6.342   1.835   4.332  0.0782  0.2275  0.2132
 1238ESO     O121846   6.166   1.760   4.186  0.5431  0.0967 -0.3063
 1238ESO     O121847   6.391   1.754   4.119 -0.0868  0.4347  0.5707
 1238ESO      S21848   6.301   1.742   4.231  0.1011 -0.0662  0.5601
 1238ESO     O221849   6.318   1.594   4.291  0.1173 -0.4356 -0.2840
 1238ESO    C1a21850   6.240   1.560   4.408  0.6824 -0.9474  0.1676
 1238ESO    H1a21851   6.152   1.614   4.405  2.0238  0.0458 -0.7892
 1238ESO    H1a21852   6.207   1.457   4.406 -1.1129  2.6418  0.7479
 1238ESO    C2a21853   6.315   1.570   4.533  0.3584  0.0194  0.7998
 1238ESO    H2a21854   6.378   1.482   4.545 -0.1263  2.4443 -0.0702
 1238ESO    H2a21855   6.251   1.578   4.618 -0.4630  3.3729  1.0230
 1238ESO    H2a21856   6.381   1.661   4.528 -1.6069 -0.9645  0.0872
 1239ESO     O121857   2.866   2.354   5.629 -0.6091  0.4011  0.3919
 1239ESO     O121858   3.068   2.470   5.579 -0.0377 -0.3559  0.5471
 1239ESO     O121859   2.894   2.465   5.420 -0.0069  0.6306 -0.3791
 1239ESO      S21860   2.926   2.469   5.562 -0.2204  0.6068  0.4509
 1239ESO     O221861   2.866   2.598   5.634  0.3612  0.0154  0.0633
 1239ESO    C1a21862   2.730   2.630   5.654  0.2208  0.2122  0.5506
 1239ESO    H1a21863   2.686   2.649   5.554  0.6160  1.1316 -1.9304
 1239ESO    H1a21864   2.661   2.555   5.706  0.0340  0.1756 -1.7612
 1239ESO    C2a21865   2.725   2.773   5.708 -0.3270 -0.4503  0.2765
 1239ESO    H2a21866   2.764   2.850   5.639 -1.9393 -1.8638 -0.0654
 1239ESO    H2a21867   2.780   2.781   5.804 -2.0575  1.0566  1.1207
 1239ESO    H2a21868   2.627   2.795   5.734 -0.5977  1.8163  0.2995
 1240ESO     O121869   3.661   1.969   2.174 -0.5993  0.3069  0.0962
 1240ESO     O121870   3.752   1.834   2.340  0.0302  0.3058 -0.2613
 1240ESO     O121871   3.603   1.741   2.177 -0.6477  0.4406 -0.4295
 1240ESO      S21872   3.707   1.838   2.204 -0.0624 -0.3425  0.2408
 1240ESO     O221873   3.824   1.800   2.109  0.0874 -0.8073 -0.1671
 1240ESO    C1a21874   3.904   1.688   2.165  0.1869  0.3465  0.2342
 1240ESO    H1a21875   3.959   1.722   2.254 -1.0715  0.2694 -1.1714
 1240ESO    H1a21876   3.837   1.611   2.181 -0.7495  0.5364 -1.4035
 1240ESO    C2a21877   3.991   1.638   2.053 -0.3983 -0.1453  0.3198
 1240ESO    H2a21878   3.920   1.584   1.982 -0.8752 -0.2458  1.3264
 1240ESO    H2a21879   4.062   1.563   2.098  2.1054 -0.4162  2.0652
 1240ESO    H2a21880   4.046   1.719   2.006  0.7998  2.0837  0.3733
 1241ESO     O121881   3.025   6.310   5.941  0.5603 -0.0532 -0.2425
 1241ESO     O121882   3.256   6.298   5.984 -0.1237  0.5457  0.3165
 1241ESO     O121883   3.115   6.127   6.069 -0.0398  0.0924 -0.2987
 1241ESO      S21884   3.135   6.220   5.965  0.3462 -0.3062  0.2319
 1241ESO     O221885   3.146   6.133   5.832 -0.3782  0.2484 -0.0860
 1241ESO    C1a21886   3.263   6.061   5.812  0.0994  0.1037 -0.0929
 1241ESO    H1a21887   3.298   6.090   5.712 -1.3041  2.9523  2.2201
 1241ESO    H1a21888   3.339   6.066   5.891 -2.1169 -1.5108 -2.7435
 1241ESO    C2a21889   3.218   5.912   5.806 -0.1957 -0.5306 -0.2264
 1241ESO    H2a21890   3.294   5.852   5.760  3.2118  0.7605  0.1970
 1241ESO    H2a21891   3.123   5.902   5.760  3.3555  3.2777  0.0287
 1241ESO    H2a21892   3.212   5.875   5.906 -0.6796  0.9407 -0.3226
 1242ESO     O121893   0.635   4.374   5.163 -0.6627  0.4564  0.1355
 1242ESO     O121894   0.799   4.328   5.330 -0.5878  0.3408 -0.1217
 1242ESO     O121895   0.577   4.266   5.360  0.0818  0.5509  0.3544
 1242ESO      S21896   0.680   4.290   5.267  0.0707  0.2648  0.4360
 1242ESO     O221897   0.710   4.151   5.195 -0.1065 -0.2364 -0.3877
 1242ESO    C1a21898   0.800   4.151   5.085 -0.1624  0.5730 -0.1873
 1242ESO    H1a21899   0.790   4.234   5.018 -1.6517 -0.0270  1.4901
 1242ESO    H1a21900   0.899   4.157   5.122  0.4623 -1.2679 -2.0492
 1242ESO    C2a21901   0.773   4.030   5.001  0.7716  0.1362 -0.4526
 1242ESO    H2a21902   0.856   3.999   4.940  0.9486 -0.9284 -0.6264
 1242ESO    H2a21903   0.686   4.054   4.934 -2.9337 -0.6375 -0.1071
 1242ESO    H2a21904   0.749   3.942   5.053  0.0281  1.2832  0.2041
 1243ESO     O121905   0.797   2.112   6.206 -0.1910  0.5701  0.4035
 1243ESO     O121906   0.650   2.226   6.059  0.1248 -0.3313 -0.9548
 1243ESO     O121907   0.558   2.106   6.239 -0.2441 -0.1874 -0.4093
 1243ESO      S21908   0.669   2.180   6.190  0.1963  0.0126  0.1659
 1243ESO     O221909   0.672   2.309   6.272  0.2002  0.2891 -0.4142
 1243ESO    C1a21910   0.774   2.408   6.260 -0.0870  0.1386 -0.2820
 1243ESO    H1a21911   0.874   2.362   6.243  2.0015 -0.5526  1.7341
 1243ESO    H1a21912   0.747   2.468   6.178  1.9212  0.2749 -0.4065
 1243ESO    C2a21913   0.777   2.490   6.383  0.3409  0.3642  0.5757
 1243ESO    H2a21914   0.811   2.432   6.465  0.8377  1.8376 -0.3947
 1243ESO    H2a21915   0.690   2.547   6.410  1.3332  1.6371 -0.6018
 1243ESO    H2a21916   0.834   2.579   6.365 -0.4311 -1.8494 -1.7542
 1244ESO     O121917   1.373   3.544   4.424 -0.2241  0.2509 -0.1295
 1244ESO     O121918   1.359   3.645   4.207 -0.4645 -0.3402  0.1332
 1244ESO     O121919   1.496   3.743   4.376  0.2813 -0.3726 -0.0598
 1244ESO      S21920   1.441   3.620   4.322  0.5780  0.3695  0.0655
 1244ESO     O221921   1.564   3.525   4.285 -0.3320  0.3411  0.4643
 1244ESO    C1a21922   1.680   3.491   4.369  0.5054  0.5603  0.0324
 1244ESO    H1a21923   1.773   3.488   4.309 -0.1790 -0.3959 -0.6354
 1244ESO    H1a21924   1.695   3.569   4.445  0.5573 -0.9489 -2.5360
 1244ESO    C2a21925   1.644   3.352   4.430 -0.2581 -0.3024 -0.6086
 1244ESO    H2a21926   1.723   3.320   4.500 -0.4443  2.1285  1.8130
 1244ESO    H2a21927   1.625   3.272   4.355 -0.8190 -0.4880  0.2796
 1244ESO    H2a21928   1.545   3.368   4.482 -0.1007 -1.1953  0.2183
 1245ESO     O121929   1.625   6.350   5.430 -0.3176 -0.3253 -0.0572
 1245ESO     O121930   1.781   6.176   5.416 -0.0813 -0.6288  0.5744
 1245ESO     O121931   1.862   6.395   5.402  0.2429  0.4866  0.0620
 1245ESO      S21932   1.758   6.312   5.454  0.6536 -0.1307  0.2023
 1245ESO     O221933   1.768   6.307   5.607  0.6587 -0.0002  0.3361
 1245ESO    C1a21934   1.674   6.260   5.696 -0.3302 -0.2670  0.2797
 1245ESO    H1a21935   1.577   6.287   5.650  0.5288 -0.4912  0.1512
 1245ESO    H1a21936   1.683   6.153   5.714  3.0447  0.7421  1.8669
 1245ESO    C2a21937   1.696   6.330   5.826 -0.0944  0.2154 -0.2623
 1245ESO    H2a21938   1.802   6.323   5.861  3.7918  0.9385  0.0113
 1245ESO    H2a21939   1.628   6.303   5.909 -2.0162  2.0563  1.0021
 1245ESO    H2a21940   1.680   6.439   5.805 -1.8233  2.4361  5.2727
 1246ESO     O121941   2.789   1.971   4.069  0.2122 -0.6128  0.0412
 1246ESO     O121942   2.944   1.844   3.931  0.0267 -0.3286  0.3862
 1246ESO     O121943   2.967   1.857   4.172 -0.5756  0.1832 -0.6658
 1246ESO      S21944   2.877   1.859   4.059  0.0805  0.3662  0.0731
 1246ESO     O221945   2.787   1.725   4.084 -0.2702 -1.1834 -0.1293
 1246ESO    C1a21946   2.689   1.679   3.986  0.3875 -0.3277 -0.4063
 1246ESO    H1a21947   2.589   1.701   4.011  0.2809  0.5125 -1.8445
 1246ESO    H1a21948   2.712   1.719   3.889 -1.4594 -3.4496  0.1966
 1246ESO    C2a21949   2.701   1.526   3.992 -0.4319  0.8222  0.6785
 1246ESO    H2a21950   2.679   1.493   4.094 -3.6352  1.2554  1.1010
 1246ESO    H2a21951   2.807   1.494   3.975 -2.1618 -0.1989  0.0147
 1246ESO    H2a21952   2.629   1.476   3.921 -0.9252 -2.0310  0.3595
 1247ESO     O121953   6.176   6.294   5.178 -0.7540  0.0180 -0.3692
 1247ESO     O121954   6.360   6.238   5.024  0.2917 -0.3187 -0.6583
 1247ESO     O121955   6.154   6.132   4.999 -0.1982  0.0458 -0.4995
 1247ESO      S21956   6.219   6.251   5.045 -0.3274 -0.1003  0.2723
 1247ESO     O221957   6.174   6.363   4.945  0.2712  0.0117  0.1723
 1247ESO    C1a21958   6.188   6.340   4.797 -0.1856 -0.2163 -0.5814
 1247ESO    H1a21959   6.289   6.320   4.764 -2.5928 -0.5907  1.3829
 1247ESO    H1a21960   6.124   6.259   4.762  0.1641 -1.0698 -1.8467
 1247ESO    C2a21961   6.148   6.474   4.733 -0.2866  0.0433 -0.3194
 1247ESO    H2a21962   6.219   6.561   4.756  1.6104  0.3167 -2.2533
 1247ESO    H2a21963   6.054   6.495   4.783  0.3327  0.8858  1.7613
 1247ESO    H2a21964   6.135   6.460   4.622  0.1460  1.7097 -1.6257
 1248ESO     O121965   4.238   6.703   6.750 -0.2210  0.2403 -0.0810
 1248ESO     O121966   4.401   6.858   6.672  0.3093 -0.2818  0.7007
 1248ESO     O121967   4.336   6.852   6.909  0.0833  0.0698  0.1391
 1248ESO      S21968   4.351   6.784   6.783  0.5905  0.0217 -0.0677
 1248ESO     O221969   4.478   6.689   6.815 -0.2274  0.2043 -0.7810
 1248ESO    C1a21970   4.525   6.573   6.737  0.2904 -0.2915 -0.7614
 1248ESO    H1a21971   4.504   6.589   6.633 -0.3636 -1.7309 -1.6407
 1248ESO    H1a21972   4.634   6.567   6.754 -2.1515  0.6539  1.1962
 1248ESO    C2a21973   4.448   6.456   6.783  0.9547 -0.3034  0.3742
 1248ESO    H2a21974   4.344   6.460   6.774  0.3615  0.7238  2.8181
 1248ESO    H2a21975   4.485   6.432   6.883 -1.1135  1.0745 -0.1180
 1248ESO    H2a21976   4.486   6.377   6.723  0.3312  0.7119  1.3887
 1249ESO     O121977   2.429   3.442   3.783  0.4891 -0.1040  0.5181
 1249ESO     O121978   2.418   3.615   3.953  0.1662  0.0034  0.2018
 1249ESO     O121979   2.604   3.466   3.952  0.1407 -0.9760  0.4335
 1249ESO      S21980   2.498   3.528   3.873  0.0240 -0.0100 -0.1860
 1249ESO     O221981   2.575   3.620   3.772 -0.2203  0.3116 -0.3163
 1249ESO    C1a21982   2.510   3.670   3.654 -1.0774 -0.4082 -0.9154
 1249ESO    H1a21983   2.515   3.597   3.567 -1.2644  0.1802  1.9371
 1249ESO    H1a21984   2.410   3.688   3.687 -0.7239 -1.1587 -0.1710
 1249ESO    C2a21985   2.587   3.799   3.635 -0.3870  0.0842  0.0330
 1249ESO    H2a21986   2.687   3.773   3.597  1.0530 -1.6661  1.2200
 1249ESO    H2a21987   2.605   3.853   3.726  0.4521  0.9332 -3.6721
 1249ESO    H2a21988   2.537   3.868   3.557 -2.7571  0.3379 -1.6213
 1250ESO     O121989   3.507   6.357   2.034 -0.0393 -0.4797 -0.4292
 1250ESO     O121990   3.747   6.358   2.076  0.0677 -0.5807 -0.4623
 1250ESO     O121991   3.634   6.159   2.010  0.1118 -0.5932 -0.2028
 1250ESO      S21992   3.633   6.304   2.004  0.1597 -0.0601  0.1878
 1250ESO     O221993   3.652   6.347   1.854 -0.4840  0.1303 -0.1032
 1250ESO    C1a21994   3.573   6.289   1.751 -0.4310  0.2698  0.3994
 1250ESO    H1a21995   3.614   6.192   1.722 -2.4377  0.8116  2.1431
 1250ESO    H1a21996   3.468   6.279   1.779 -2.4913 -1.0332 -0.0837
 1250ESO    C2a21997   3.594   6.390   1.641 -0.1135 -0.3927 -0.3163
 1250ESO    H2a21998   3.570   6.349   1.544 -0.6211 -1.3121  0.9521
 1250ESO    H2a21999   3.696   6.427   1.646 -1.8064  1.5196 -1.0326
 1250ESO    H2a22000   3.529   6.473   1.652  0.8083 -1.0138  0.4973
 1251ESO     O122001   3.601   1.758   3.030  0.8978 -0.3506  0.0193
 1251ESO     O122002   3.733   1.723   3.223 -0.2933  0.0435 -0.1747
 1251ESO     O122003   3.499   1.698   3.237  0.1229  0.2591  0.5715
 1251ESO      S22004   3.612   1.690   3.155  0.1084  0.2031 -0.0639
 1251ESO     O222005   3.625   1.533   3.131 -0.2220  0.2137 -0.0997
 1251ESO    C1a22006   3.518   1.442   3.089 -0.1832  0.1115 -0.3044
 1251ESO    H1a22007   3.539   1.343   3.147  2.3414 -2.1613 -0.1370
 1251ESO    H1a22008   3.419   1.484   3.114  0.2801 -0.8790  1.1255
 1251ESO    C2a22009   3.506   1.429   2.945  0.0772 -1.0900 -0.0405
 1251ESO    H2a22010   3.554   1.336   2.910  0.0516 -0.8131  4.2635
 1251ESO    H2a22011   3.548   1.522   2.886  0.4760  1.3076  0.2208
 1251ESO    H2a22012   3.405   1.432   2.925 -1.0908 -0.5111 -0.5881
 1252ESO     O122013   3.550   4.528   0.648  0.3541 -0.2991 -0.1844
 1252ESO     O122014   3.362   4.591   0.519 -0.4098  0.4876  0.1441
 1252ESO     O122015   3.335   4.422   0.690  0.2255  0.3643 -0.3257
 1252ESO      S22016   3.408   4.540   0.644  0.2043  0.1201  0.5071
 1252ESO     O222017   3.381   4.654   0.756 -0.4544 -0.3920  0.5354
 1252ESO    C1a22018   3.240   4.692   0.759  0.0984 -0.0186 -0.4723
 1252ESO    H1a22019   3.174   4.628   0.703 -0.6683 -0.1207  1.0487
 1252ESO    H1a22020   3.205   4.690   0.858 -1.5246 -1.1364  1.0764
 1252ESO    C2a22021   3.229   4.837   0.709  0.4317 -0.7015 -0.0547
 1252ESO    H2a22022   3.318   4.897   0.745 -2.4557 -0.4412  0.9676
 1252ESO    H2a22023   3.135   4.873   0.745  0.4207 -1.1545 -0.7785
 1252ESO    H2a22024   3.231   4.838   0.604 -0.8782  0.8674  0.3114
 1253ESO     O122025   2.276   6.453   1.713  0.0690  0.0373 -0.6454
 1253ESO     O122026   2.199   6.321   1.531  0.0837  0.5101  0.0498
 1253ESO     O122027   2.173   6.239   1.759 -0.5822  0.1852 -0.4699
 1253ESO      S22028   2.180   6.354   1.670 -0.2625  0.4849 -0.3183
 1253ESO     O222029   2.045   6.429   1.684  0.1959  0.4938  0.1661
 1253ESO    C1a22030   1.929   6.354   1.623 -0.1600 -0.3850  0.3465
 1253ESO    H1a22031   1.932   6.357   1.511 -0.9146  3.1050 -0.1012
 1253ESO    H1a22032   1.946   6.255   1.644  0.5162 -0.4399 -0.7326
 1253ESO    C2a22033   1.801   6.420   1.674 -0.0787 -0.3327 -0.1067
 1253ESO    H2a22034   1.785   6.506   1.609  2.2695 -1.2880  1.7176
 1253ESO    H2a22035   1.813   6.460   1.773  1.9166 -0.1877 -5.0389
 1253ESO    H2a22036   1.723   6.355   1.675  0.4358 -0.4943  0.3108
 1254ESO     O122037   6.621   5.585   1.969 -0.2936 -0.0332  0.1656
 1254ESO     O122038   6.793   5.634   2.120  0.7158  0.1689 -0.1947
 1254ESO     O122039   6.847   5.638   1.890  0.0829  0.9170 -0.5038
 1254ESO      S22040   6.744   5.660   1.988  0.0119 -0.2289  0.2686
 1254ESO     O222041   6.701   5.813   1.984 -0.8828  0.1573  0.4235
 1254ESO    C1a22042   6.675   5.876   1.860  0.0089 -0.1088  0.5878
 1254ESO    H1a22043   6.766   5.881   1.805  3.0806 -0.1853  0.7159
 1254ESO    H1a22044   6.599   5.818   1.805  0.1415 -3.0860 -0.0557
 1254ESO    C2a22045   6.618   6.012   1.891 -0.1121 -0.7971 -0.3840
 1254ESO    H2a22046   6.685   6.083   1.936 -2.0105 -1.5447 -0.5516
 1254ESO    H2a22047   6.531   5.990   1.954 -3.2999 -1.0463  1.5698
 1254ESO    H2a22048   6.573   6.059   1.802  2.3107 -1.1374  1.7792
 1255ESO     O122049   1.434   6.275   0.016  0.1014  0.2807  0.2321
 1255ESO     O122050   1.546   6.116  -0.104 -0.2404  0.7743  0.3060
 1255ESO     O122051   1.531   6.094   0.140 -0.2170 -0.0375 -0.0087
 1255ESO      S22052   1.473   6.135   0.012  0.2034 -0.5430  0.4239
 1255ESO     O222053   1.339   6.064  -0.007  0.1226 -0.0864 -0.5855
 1255ESO    C1a22054   1.249   6.103  -0.114  0.4308 -0.0845  0.0501
 1255ESO    H1a22055   1.223   6.207  -0.083  6.0081  2.3225 -1.7182
 1255ESO    H1a22056   1.301   6.132  -0.204 -1.7178 -0.8753  2.0529
 1255ESO    C2a22057   1.135   5.999  -0.125  0.5373  0.6722  0.0964
 1255ESO    H2a22058   1.070   6.030  -0.204  1.2778  2.3352  0.6310
 1255ESO    H2a22059   1.072   5.994  -0.035 -0.8180  0.2108  1.5946
 1255ESO    H2a22060   1.177   5.900  -0.147 -0.4922 -3.5000 -0.6069
 1256ESO     O122061   4.447   4.991   0.073  0.0443 -0.4956 -0.7578
 1256ESO     O122062   4.431   5.011  -0.157 -0.3190 -0.4725 -0.0299
 1256ESO     O122063   4.648   5.029  -0.051  0.4956  0.0710  0.4524
 1256ESO      S22064   4.516   4.970  -0.050 -0.2617  0.5986  0.5637
 1256ESO     O222065   4.533   4.810  -0.081 -0.3703 -0.1068  0.3624
 1256ESO    C1a22066   4.586   4.762  -0.202 -0.0621  0.2786  0.4839
 1256ESO    H1a22067   4.534   4.809  -0.283 -1.1981 -1.1538 -0.0566
 1256ESO    H1a22068   4.690   4.794  -0.213 -1.1539  1.9331  1.5024
 1256ESO    C2a22069   4.564   4.608  -0.196 -0.1100 -0.3402  0.6205
 1256ESO    H2a22070   4.499   4.584  -0.116  0.0840 -1.9783  0.8665
 1256ESO    H2a22071   4.656   4.548  -0.158  0.0529  2.5766  3.2360
 1256ESO    H2a22072   4.527   4.572  -0.296  0.6272 -2.4260 -1.7612
 1257ESO     O122073   1.361   6.407   0.873  0.2534  0.2854 -0.0959
 1257ESO     O122074   1.197   6.362   0.711  0.1282 -0.2341  0.4265
 1257ESO     O122075   1.156   6.311   0.941 -0.1681 -0.2328 -0.3977
 1257ESO      S22076   1.221   6.393   0.848  0.0423 -0.3805 -0.3822
 1257ESO     O222077   1.149   6.527   0.878  0.4002  0.3146  0.5581
 1257ESO    C1a22078   1.194   6.653   0.824 -0.2240 -0.5243  0.1808
 1257ESO    H1a22079   1.243   6.709   0.899 -0.2581  0.1173  2.2826
 1257ESO    H1a22080   1.253   6.641   0.734 -1.3791  2.9665 -0.3542
 1257ESO    C2a22081   1.067   6.728   0.791 -0.4193  1.0443  0.0785
 1257ESO    H2a22082   1.015   6.669   0.715  1.7693 -1.4089  0.7239
 1257ESO    H2a22083   1.096   6.820   0.745 -0.0534 -1.3517 -1.4545
 1257ESO    H2a22084   1.007   6.751   0.869 -2.0853  1.1059 -0.3550
 1258ESO     O122085   0.440   4.336   1.854  0.4660  0.1870 -0.2113
 1258ESO     O122086   0.597   4.163   1.917  0.5811  0.2664 -0.5363
 1258ESO     O122087   0.359   4.134   1.952 -0.4476  0.7489 -0.1809
 1258ESO      S22088   0.463   4.195   1.877 -0.0609 -0.2231  0.5299
 1258ESO     O222089   0.453   4.141   1.733  0.2653 -0.5290  0.0672
 1258ESO    C1a22090   0.321   4.126   1.678  0.1078 -0.6494 -0.3567
 1258ESO    H1a22091   0.281   4.027   1.718  1.3840 -3.6363  1.1117
 1258ESO    H1a22092   0.254   4.212   1.696 -1.3303  0.8541  0.9688
 1258ESO    C2a22093   0.348   4.129   1.526  0.1855  0.2840  0.1330
 1258ESO    H2a22094   0.431   4.201   1.513 -0.3944  2.9089  1.4888
 1258ESO    H2a22095   0.256   4.159   1.462 -2.8095 -0.0770 -2.8941
 1258ESO    H2a22096   0.393   4.037   1.499  2.9763  3.9913  0.3794
 1259ESO     O122097   5.777   0.819   1.458 -0.1454  0.5621 -0.3594
 1259ESO     O122098   5.905   0.731   1.641  0.2575 -0.0211 -0.1009
 1259ESO     O122099   5.856   0.964   1.636 -0.2930  0.1401  0.3237
 1259ESO      S22100   5.810   0.830   1.597 -0.0701 -0.0072 -0.3286
 1259ESO     O222101   5.665   0.814   1.674 -0.8269 -0.0143 -0.1084
 1259ESO    C1a22102   5.554   0.894   1.627  0.3803  0.0666 -0.5801
 1259ESO    H1a22103   5.513   0.942   1.723 -0.5945  2.7933 -0.6028
 1259ESO    H1a22104   5.577   0.978   1.564  0.7149 -0.8332 -0.4229
 1259ESO    C2a22105   5.455   0.799   1.554  0.3314  0.4515 -0.0072
 1259ESO    H2a22106   5.371   0.853   1.512 -1.0692  0.3546 -1.3587
 1259ESO    H2a22107   5.421   0.718   1.623  1.2544  0.7812  1.5908
 1259ESO    H2a22108   5.503   0.741   1.479 -1.1836  1.3712  1.6830
 1260ESO     O122109   3.197   1.330   0.365  0.6150 -0.7365  0.3049
 1260ESO     O122110   3.306   1.547   0.359  0.4224 -0.6775 -0.0922
 1260ESO     O122111   3.376   1.365   0.221  0.2913 -0.3816  0.5930
 1260ESO      S22112   3.270   1.429   0.288 -0.3600  0.6003  0.0318
 1260ESO     O222113   3.167   1.478   0.165 -0.6605  0.3316 -0.5152
 1260ESO    C1a22114   3.140   1.403   0.048 -0.8546  0.1760 -0.1037
 1260ESO    H1a22115   3.225   1.401  -0.022 -1.2009  0.4151  0.8193
 1260ESO    H1a22116   3.129   1.300   0.072 -0.9618 -1.0358 -0.5374
 1260ESO    C2a22117   3.022   1.467  -0.023  0.5484  0.3272  0.7389
 1260ESO    H2a22118   2.933   1.461   0.040 -1.6817 -1.4173 -2.0459
 1260ESO    H2a22119   2.995   1.414  -0.117 -0.4500  0.9939 -1.9797
 1260ESO    H2a22120   3.029   1.574  -0.050  2.0371 -1.3677  1.5403
 1261ESO     O122121   4.114   4.726   3.421  0.1083  0.4185  0.0037
 1261ESO     O122122   3.948   4.782   3.582 -0.0625  0.2587 -0.1406
 1261ESO     O122123   4.103   4.604   3.622 -0.5334 -0.0950  0.0823
 1261ESO      S22124   4.077   4.729   3.559  0.0514 -0.0249 -0.6186
 1261ESO     O222125   4.170   4.830   3.630 -0.1852  0.1435 -0.6724
 1261ESO    C1a22126   4.177   4.965   3.579  0.0950  0.1236  0.4116
 1261ESO    H1a22127   4.166   4.968   3.468 -1.5553  0.0285 -0.3296
 1261ESO    H1a22128   4.098   5.023   3.629  1.1801  1.6299 -0.3593
 1261ESO    C2a22129   4.306   5.028   3.615 -0.3635 -1.0265 -0.3426
 1261ESO    H2a22130   4.381   4.961   3.575 -0.4850 -0.4605  0.9436
 1261ESO    H2a22131   4.311   5.012   3.719  0.0836 -0.0697 -0.6701
 1261ESO    H2a22132   4.326   5.131   3.578  1.3062  0.2799 -2.2433
 1262ESO     O122133   0.164   4.311   3.507 -0.0897  0.4982 -0.1781
 1262ESO     O122134   0.246   4.160   3.671  0.1152 -0.0041 -0.1382
 1262ESO     O122135   0.169   4.370   3.744 -0.3153  0.9242 -0.8523
 1262ESO      S22136   0.154   4.265   3.645  0.2842 -0.0385 -0.1377
 1262ESO     O222137   0.010   4.199   3.664  0.9243  0.6387 -0.2138
 1262ESO    C1a22138  -0.099   4.283   3.629  0.5928  0.1323 -0.5091
 1262ESO    H1a22139  -0.074   4.387   3.619 -1.0887  1.0901 -4.4834
 1262ESO    H1a22140  -0.132   4.240   3.538  0.1064 -0.3544  0.9666
 1262ESO    C2a22141  -0.203   4.263   3.734  0.1495  0.2702  0.7888
 1262ESO    H2a22142  -0.227   4.166   3.744  2.4792  1.3430  1.0655
 1262ESO    H2a22143  -0.288   4.317   3.699  1.7085 -2.8012 -1.5833
 1262ESO    H2a22144  -0.170   4.304   3.829 -0.5983  0.0938  2.1096
 1263ESO     O122145   4.072   4.585   6.159 -0.0615  0.0688 -0.1005
 1263ESO     O122146   4.161   4.466   6.359  0.3191  0.2338 -0.0040
 1263ESO     O122147   3.937   4.567   6.362  0.2290  0.2862  0.1397
 1263ESO      S22148   4.047   4.508   6.281  0.0245  0.4231  0.2446
 1263ESO     O222149   3.985   4.370   6.234 -0.2314 -0.0210  0.3142
 1263ESO    C1a22150   3.849   4.381   6.171 -0.3462 -0.1197  0.2225
 1263ESO    H1a22151   3.774   4.374   6.247 -0.6541  3.0609 -0.5722
 1263ESO    H1a22152   3.834   4.473   6.116 -0.1889 -2.4442  0.3545
 1263ESO    C2a22153   3.832   4.268   6.077  0.2268  0.3420  1.1145
 1263ESO    H2a22154   3.855   4.174   6.125 -1.0185  1.6738 -1.5168
 1263ESO    H2a22155   3.896   4.275   5.993 -1.9671 -0.6821  2.7172
 1263ESO    H2a22156   3.731   4.262   6.035 -1.5161 -0.8343  1.6466
 1264ESO     O122157   3.231   5.264   5.279 -0.3958 -0.2835  0.2332
 1264ESO     O122158   3.229   5.222   5.046  0.3266 -0.4803  0.5031
 1264ESO     O122159   3.431   5.180   5.167  0.2197 -0.4563 -0.1964
 1264ESO      S22160   3.284   5.187   5.171  0.1341  0.2675  0.3140
 1264ESO     O222161   3.234   5.042   5.193  0.3035 -0.0595 -0.3460
 1264ESO    C1a22162   3.201   4.951   5.087  0.2714 -0.4790  0.1457
 1264ESO    H1a22163   3.102   4.967   5.051  2.8148 -1.4795 -1.1052
 1264ESO    H1a22164   3.264   4.968   4.999 -0.2967 -0.1841 -0.5592
 1264ESO    C2a22165   3.239   4.814   5.138  0.0111 -0.5575  0.7703
 1264ESO    H2a22166   3.158   4.744   5.119 -0.5024 -0.1145 -0.8029
 1264ESO    H2a22167   3.266   4.800   5.241  2.6203  0.8164  1.3554
 1264ESO    H2a22168   3.321   4.784   5.073 -1.2606  3.1294 -2.6142
 1265ESO     O122169   1.019   4.786   3.620  0.0162 -0.6134 -0.0810
 1265ESO     O122170   0.886   4.944   3.502  0.4927  0.2284 -0.0860
 1265ESO     O122171   1.084   4.847   3.403  0.5455 -0.6117 -0.1181
 1265ESO      S22172   0.974   4.834   3.490  0.1903  0.2799  0.1255
 1265ESO     O222173   0.878   4.716   3.437  0.2934 -0.4820 -0.2407
 1265ESO    C1a22174   0.925   4.576   3.432 -0.4534 -0.2684  0.5215
 1265ESO    H1a22175   1.012   4.565   3.499  0.7197 -2.6322  0.8000
 1265ESO    H1a22176   0.842   4.515   3.468 -0.5175 -1.5975  1.4909
 1265ESO    C2a22177   0.947   4.552   3.284 -0.0087 -0.2024 -1.1883
 1265ESO    H2a22178   1.014   4.632   3.243  2.2763  1.6434  2.3559
 1265ESO    H2a22179   0.853   4.558   3.242  0.8338  1.6394 -2.0284
 1265ESO    H2a22180   0.997   4.448   3.263  3.8699 -1.5416 -1.3600
 1266ESO     O122181   6.538   2.135   6.479  0.2669 -0.3872  0.3670
 1266ESO     O122182   6.299   2.140   6.462  0.3198  0.0374  0.0494
 1266ESO     O122183   6.423   2.328   6.526 -0.0345 -0.0021  0.0369
 1266ESO      S22184   6.422   2.208   6.446  0.0714 -0.1415 -0.2285
 1266ESO     O222185   6.431   2.255   6.296 -0.5482 -0.5119 -0.1881
 1266ESO    C1a22186   6.478   2.167   6.186  0.0199 -0.0041  0.4677
 1266ESO    H1a22187   6.553   2.217   6.123 -0.2606  0.1434  1.6895
 1266ESO    H1a22188   6.534   2.084   6.228 -0.7244 -1.9006  0.5884
 1266ESO    C2a22189   6.364   2.128   6.104  0.4804 -0.3823 -0.2900
 1266ESO    H2a22190   6.275   2.106   6.171 -1.6278  1.2724  1.1112
 1266ESO    H2a22191   6.390   2.049   6.031 -1.6244  0.5494 -0.3289
 1266ESO    H2a22192   6.327   2.214   6.048 -0.9349 -2.9065  0.8648
 1267ESO     O122193   6.665   1.841   5.963  0.4366 -0.3649 -0.5406
 1267ESO     O122194   6.716   2.074   5.979  0.7519  0.0861 -0.4347
 1267ESO     O122195   6.890   1.913   5.996  0.3127  1.0923 -0.3942
 1267ESO      S22196   6.761   1.944   5.943  0.2194 -0.1477 -0.1424
 1267ESO     O222197   6.773   1.944   5.784 -0.2087 -0.1102  0.3685
 1267ESO    C1a22198   6.865   2.036   5.721  0.0090  0.1770 -0.3950
 1267ESO    H1a22199   6.854   2.142   5.750  0.1007  0.8440  2.1593
 1267ESO    H1a22200   6.968   1.999   5.736  2.2127 -2.3047 -0.8071
 1267ESO    C2a22201   6.846   2.003   5.576 -0.1622 -0.2874  0.7762
 1267ESO    H2a22202   6.906   2.081   5.520  0.6439 -1.1539  3.3941
 1267ESO    H2a22203   6.742   2.026   5.547 -1.9611  0.0569 -0.9001
 1267ESO    H2a22204   6.878   1.904   5.544  1.4576 -0.4417 -1.1049
 1268ESO     O122205   2.255   5.575   0.480 -0.4422 -0.7214 -0.4467
 1268ESO     O122206   2.315   5.553   0.706 -0.3159  0.5246 -0.0380
 1268ESO     O122207   2.192   5.749   0.632 -0.2359  0.0787 -0.1417
 1268ESO      S22208   2.220   5.611   0.610  0.2201 -0.0885  0.4087
 1268ESO     O222209   2.083   5.540   0.638 -0.6292  0.5208 -0.0169
 1268ESO    C1a22210   1.978   5.566   0.547  0.2159 -0.4599 -0.0803
 1268ESO    H1a22211   1.930   5.660   0.573 -0.8158 -0.5891 -0.8396
 1268ESO    H1a22212   2.005   5.570   0.445 -1.1850 -1.8857 -0.8294
 1268ESO    C2a22213   1.877   5.461   0.568  0.4905 -0.1877 -0.1491
 1268ESO    H2a22214   1.813   5.456   0.480  3.1918 -2.1161  0.7669
 1268ESO    H2a22215   1.822   5.500   0.648  0.1770 -1.9905  1.2140
 1268ESO    H2a22216   1.915   5.361   0.578  0.2560 -0.4384 -0.6159
 1269ESO     O122217   4.147   1.371   6.043 -0.4791  0.0920 -0.3369
 1269ESO     O122218   4.134   1.498   5.833  0.0008 -0.6899  0.1863
 1269ESO     O122219   4.161   1.261   5.815  0.0835  0.2435  0.1763
 1269ESO      S22220   4.111   1.374   5.899 -0.1335  0.0909  0.0828
 1269ESO     O222221   3.951   1.365   5.909  0.0569  0.2554  0.0323
 1269ESO    C1a22222   3.861   1.375   5.789  0.9679 -0.0024 -0.5587
 1269ESO    H1a22223   3.835   1.477   5.770  1.3333 -2.3679 -1.4192
 1269ESO    H1a22224   3.910   1.344   5.696  1.4959  2.0657 -0.4027
 1269ESO    C2a22225   3.743   1.292   5.832  0.4314 -0.4303  0.4908
 1269ESO    H2a22226   3.721   1.328   5.935 -1.2934  1.5300 -1.9090
 1269ESO    H2a22227   3.760   1.191   5.831 -0.8340  1.8238 -1.6162
 1269ESO    H2a22228   3.658   1.308   5.767 -1.3423  1.6804  0.6201
 1270ESO     O122229   4.405   5.772   0.807  0.1813  0.2740  0.1348
 1270ESO     O122230   4.534   5.580   0.857  0.5920  0.2063 -0.1627
 1270ESO     O122231   4.343   5.635   0.995  0.2732 -0.3228 -0.0189
 1270ESO      S22232   4.408   5.642   0.869  0.1356  0.2758 -0.2949
 1270ESO     O222233   4.315   5.554   0.781 -0.1012 -0.2172 -0.0550
 1270ESO    C1a22234   4.183   5.594   0.741  0.6741 -0.0210  0.5707
 1270ESO    H1a22235   4.124   5.643   0.826 -1.1577  2.1162 -0.2718
 1270ESO    H1a22236   4.193   5.663   0.662 -0.2816  2.5534  0.1528
 1270ESO    C2a22237   4.101   5.466   0.701 -0.8726  0.7966 -0.5534
 1270ESO    H2a22238   4.003   5.493   0.670  2.1934  0.9512  0.2681
 1270ESO    H2a22239   4.101   5.385   0.779  1.2954  0.9237 -1.5835
 1270ESO    H2a22240   4.139   5.422   0.610  1.5362 -2.1204 -1.9011
 1271ESO     O122241   3.220   4.865   1.245 -0.3737  0.0909  0.2952
 1271ESO     O122242   3.279   4.670   1.125 -1.1822  0.2090  0.8442
 1271ESO     O122243   3.326   4.884   1.029 -0.1842  0.1324  0.1594
 1271ESO      S22244   3.309   4.808   1.148 -0.4710 -0.5785  0.0281
 1271ESO     O222245   3.452   4.802   1.202 -0.7089 -0.0794  0.4695
 1271ESO    C1a22246   3.479   4.714   1.314  0.0054 -0.7844  0.2192
 1271ESO    H1a22247   3.407   4.735   1.388  1.1616 -1.7156  0.3210
 1271ESO    H1a22248   3.462   4.612   1.283 -0.7471 -1.5144 -0.2662
 1271ESO    C2a22249   3.619   4.738   1.371 -0.3039 -0.1561  0.2238
 1271ESO    H2a22250   3.637   4.657   1.446 -3.0585  0.5965 -0.8649
 1271ESO    H2a22251   3.629   4.829   1.423 -1.2133 -0.5593 -0.0866
 1271ESO    H2a22252   3.691   4.736   1.290 -2.4743 -1.5194  2.3912
 1272ESO     O122253   5.569   1.065   2.221  0.5530 -0.0929 -0.4802
 1272ESO     O122254   5.782   1.021   2.137 -0.3547  0.0325  0.2754
 1272ESO     O122255   5.702   1.241   2.127 -0.0174  0.0451  0.3761
 1272ESO      S22256   5.698   1.120   2.199  0.3264  0.2445 -0.0737
 1272ESO     O222257   5.760   1.148   2.342  0.1184 -0.3503 -0.3722
 1272ESO    C1a22258   5.770   1.043   2.437 -0.7471  0.4566 -0.2493
 1272ESO    H1a22259   5.687   1.049   2.506 -0.3822 -0.8083 -2.6882
 1272ESO    H1a22260   5.758   0.949   2.383  1.6530 -0.4409  0.6341
 1272ESO    C2a22261   5.905   1.057   2.500 -0.0428  0.0302  0.5688
 1272ESO    H2a22262   5.918   1.000   2.592 -0.4241 -1.2142 -0.1735
 1272ESO    H2a22263   5.946   1.155   2.518  1.5657 -1.1409 -0.5403
 1272ESO    H2a22264   5.979   1.009   2.433  0.6578  0.4663 -0.8796
 1273ESO     O122265   2.233   3.449   1.944 -0.0071 -0.1732  0.0826
 1273ESO     O122266   2.318   3.286   1.778  0.2394  0.7591 -0.0157
 1273ESO     O122267   2.086   3.297   1.825 -0.2814  0.2007  0.4041
 1273ESO      S22268   2.209   3.371   1.825  0.3049  0.4015 -0.1225
 1273ESO     O222269   2.194   3.474   1.700  0.2275 -0.2048 -0.0311
 1273ESO    C1a22270   2.076   3.559   1.686  0.7725  0.0998 -0.3418
 1273ESO    H1a22271   1.985   3.501   1.680  0.4920 -0.3034 -0.5682
 1273ESO    H1a22272   2.078   3.641   1.768  0.4116 -0.7626  3.5693
 1273ESO    C2a22273   2.086   3.622   1.544  0.2508  0.0522  0.4145
 1273ESO    H2a22274   2.170   3.685   1.547  1.9809 -1.9163 -2.4046
 1273ESO    H2a22275   2.004   3.687   1.521  2.9645  0.4268 -0.7167
 1273ESO    H2a22276   2.084   3.554   1.462 -1.2240 -0.0543  0.5167
 1274ESO     O122277   2.186   2.547   0.509 -0.2674 -0.1244  0.0652
 1274ESO     O122278   2.173   2.315   0.560  0.0418 -0.4172  0.3476
 1274ESO     O122279   2.369   2.392   0.450  0.2752  0.0431 -0.1963
 1274ESO      S22280   2.260   2.430   0.543  0.2451  0.3926  0.4262
 1274ESO     O222281   2.330   2.455   0.679 -0.0597  0.1935 -0.2894
 1274ESO    C1a22282   2.248   2.489   0.787 -0.2171  0.6517 -0.4995
 1274ESO    H1a22283   2.150   2.538   0.763 -0.9461 -0.8079 -2.0891
 1274ESO    H1a22284   2.209   2.398   0.836 -0.4824 -0.0372  0.2714
 1274ESO    C2a22285   2.331   2.573   0.878  0.0119  0.5580 -0.6663
 1274ESO    H2a22286   2.310   2.681   0.867 -2.0553 -1.4256 -0.8768
 1274ESO    H2a22287   2.434   2.559   0.869 -2.3319 -0.8739  1.3140
 1274ESO    H2a22288   2.302   2.540   0.981  0.3603 -2.5205 -1.4758
 1275ESO     O122289   5.083   6.774   4.214 -0.4257  0.3653 -0.0258
 1275ESO     O122290   5.135   6.568   4.107 -0.1263 -0.0187 -0.4218
 1275ESO     O122291   5.283   6.659   4.270  0.2216 -0.0819  0.6017
 1275ESO      S22292   5.148   6.650   4.224 -0.2299  0.1813 -0.4657
 1275ESO     O222293   5.067   6.576   4.340 -0.1104 -0.1426 -0.0234
 1275ESO    C1a22294   4.929   6.548   4.319 -0.1545  0.0611 -0.4925
 1275ESO    H1a22295   4.874   6.630   4.358 -1.5329 -1.3761 -0.4436
 1275ESO    H1a22296   4.912   6.545   4.207  0.4565 -1.0203 -1.4583
 1275ESO    C2a22297   4.904   6.413   4.387 -0.1936 -0.9727 -0.3103
 1275ESO    H2a22298   4.795   6.404   4.399 -0.9878 -2.7273  0.5211
 1275ESO    H2a22299   4.948   6.402   4.484 -1.3741  0.9954 -1.0531
 1275ESO    H2a22300   4.931   6.338   4.311 -1.4516  0.6412 -1.4844
 1276ESO     O122301   0.891   5.964   6.391  0.6628 -0.0924 -0.3169
 1276ESO     O122302   0.748   5.893   6.209 -0.2590 -0.0809 -0.0261
 1276ESO     O122303   0.707   6.097   6.316 -0.4453  0.3024  0.2693
 1276ESO      S22304   0.808   6.001   6.281  0.2008  0.2276 -0.0140
 1276ESO     O222305   0.905   6.081   6.177  0.0005 -0.2092 -0.3910
 1276ESO    C1a22306   0.967   6.208   6.217  0.0096 -1.4960  0.0646
 1276ESO    H1a22307   0.890   6.266   6.266  4.1878 -1.2141 -0.9323
 1276ESO    H1a22308   1.046   6.192   6.285 -2.0887  1.8933 -0.8300
 1276ESO    C2a22309   1.022   6.276   6.097 -0.5523  0.2841  0.5966
 1276ESO    H2a22310   0.940   6.290   6.024 -2.6362 -1.2326 -1.3498
 1276ESO    H2a22311   1.099   6.220   6.046  1.2505 -0.5243 -0.2336
 1276ESO    H2a22312   1.058   6.376   6.116 -1.3057  2.2652 -0.6028
 1277ESO     O122313   5.877   4.466   4.714  0.1836  0.2050  0.1016
 1277ESO     O122314   5.828   4.561   4.923  0.3098  0.3702  0.1872
 1277ESO     O122315   5.761   4.334   4.882  0.4697  0.4630 -0.0409
 1277ESO      S22316   5.856   4.441   4.853  0.1441 -0.4410  0.1068
 1277ESO     O222317   5.989   4.392   4.912 -0.2771  0.1279  0.4740
 1277ESO    C1a22318   6.043   4.261   4.870  0.0389 -0.1895 -0.0222
 1277ESO    H1a22319   5.959   4.198   4.859 -1.7581  0.5379 -0.0799
 1277ESO    H1a22320   6.094   4.275   4.771  0.4064  0.5181  0.8587
 1277ESO    C2a22321   6.137   4.228   4.986  0.1829  0.2293 -0.0563
 1277ESO    H2a22322   6.082   4.153   5.041 -0.1396  1.0129  1.3122
 1277ESO    H2a22323   6.165   4.311   5.047  3.2081 -2.6217  0.5933
 1277ESO    H2a22324   6.222   4.169   4.949 -1.8992  0.1827  0.2977
 1278ESO     O122325   1.922   0.809   5.105 -0.0853  0.0935 -0.4682
 1278ESO     O122326   2.062   0.612   5.144 -0.0128  0.2912 -0.2827
 1278ESO     O122327   1.937   0.638   4.944  0.7028 -0.0313  0.3781
 1278ESO      S22328   2.003   0.703   5.053 -0.1836  0.0295  0.2622
 1278ESO     O222329   2.128   0.773   4.982  0.4925  0.3852 -0.4405
 1278ESO    C1a22330   2.097   0.848   4.856 -0.1462 -0.3345 -0.3723
 1278ESO    H1a22331   2.051   0.784   4.785 -1.1120  2.4756  0.6488
 1278ESO    H1a22332   2.036   0.930   4.882  3.3119  2.3257  0.5497
 1278ESO    C2a22333   2.225   0.899   4.799  1.0901  0.2726  0.1450
 1278ESO    H2a22334   2.282   0.944   4.888  0.5793 -0.3603  0.2801
 1278ESO    H2a22335   2.193   0.973   4.723  1.5612 -1.8340 -0.7807
 1278ESO    H2a22336   2.272   0.824   4.752 -0.5474  1.6112  1.0759
 1279ESO     O122337   6.718   3.706   4.456 -0.1552 -0.3784  0.0412
 1279ESO     O122338   6.587   3.513   4.432 -0.4362 -0.0668 -0.2263
 1279ESO     O122339   6.757   3.560   4.269 -0.3120  0.1315 -1.4077
 1279ESO      S22340   6.715   3.573   4.407  0.3706  0.3566 -0.2049
 1279ESO     O222341   6.829   3.489   4.493  0.7844  0.2816 -0.3877
 1279ESO    C1a22342   6.962   3.544   4.519  0.4634 -0.9237 -0.0780
 1279ESO    H1a22343   6.977   3.616   4.440  2.2679  3.1644  1.7695
 1279ESO    H1a22344   6.956   3.603   4.612 -1.6116  2.0047  1.7180
 1279ESO    C2a22345   7.067   3.430   4.526  0.3570  0.6199  0.4736
 1279ESO    H2a22346   7.161   3.471   4.562  0.1009  0.2718  0.5045
 1279ESO    H2a22347   7.085   3.384   4.432  1.6034 -0.6328 -2.0564
 1279ESO    H2a22348   7.030   3.354   4.592 -2.7338 -1.9043  0.8433
 1280ESO     O122349   0.884   6.630   2.635 -0.3836  0.2638 -0.0754
 1280ESO     O122350   0.888   6.770   2.827  0.0429 -0.1263  0.6264
 1280ESO     O122351   0.838   6.536   2.849  0.6848 -0.5705  0.6497
 1280ESO      S22352   0.911   6.637   2.776 -0.2291 -0.2267 -0.0528
 1280ESO     O222353   1.065   6.600   2.800 -0.1370 -0.2752  0.4239
 1280ESO    C1a22354   1.118   6.605   2.932  0.0563 -0.1797 -0.4503
 1280ESO    H1a22355   1.123   6.704   2.971  1.5651  0.0976 -0.3991
 1280ESO    H1a22356   1.059   6.542   3.000 -0.7906  0.0299  3.0130
 1280ESO    C2a22357   1.263   6.555   2.924 -0.0037  0.0338 -0.1690
 1280ESO    H2a22358   1.304   6.545   3.028  2.7647 -2.6799  0.6846
 1280ESO    H2a22359   1.340   6.615   2.880  0.3065  1.4301  1.0501
 1280ESO    H2a22360   1.286   6.456   2.891  0.5697 -0.1921  1.0056
 1281ESO     O122361   4.031   4.684   2.067  0.0806  0.0610 -0.0070
 1281ESO     O122362   3.870   4.521   2.032  0.8532 -0.0316 -0.4533
 1281ESO     O122363   3.826   4.695   2.188 -0.1476 -0.1365 -0.0838
 1281ESO      S22364   3.890   4.654   2.066  0.1828  0.0077 -0.0119
 1281ESO     O222365   3.827   4.739   1.953  0.1457 -0.4239  0.2627
 1281ESO    C1a22366   3.870   4.718   1.824  0.2958  0.4817  0.4485
 1281ESO    H1a22367   3.955   4.788   1.799  0.0468  0.3666 -4.1937
 1281ESO    H1a22368   3.890   4.608   1.807 -2.9543 -0.0342  1.0429
 1281ESO    C2a22369   3.754   4.738   1.727  0.0112 -0.2189 -0.0246
 1281ESO    H2a22370   3.792   4.752   1.616  0.6390 -0.5904 -4.5281
 1281ESO    H2a22371   3.700   4.828   1.750 -1.3032  1.5815 -3.0880
 1281ESO    H2a22372   3.687   4.642   1.730 -1.5639 -2.4140  1.4493
 1282ESO     O122373   2.571   5.169   1.774  0.4900 -0.1535 -0.2656
 1282ESO     O122374   2.431   4.983   1.800 -0.8886  0.6092  0.7898
 1282ESO     O122375   2.341   5.207   1.831  0.3512  0.2628  0.3299
 1282ESO      S22376   2.437   5.121   1.769 -0.1726 -0.2252 -0.3130
 1282ESO     O222377   2.388   5.126   1.622 -0.4619  0.4631 -0.6290
 1282ESO    C1a22378   2.250   5.093   1.595 -0.3878 -0.3761  0.2546
 1282ESO    H1a22379   2.218   5.037   1.680  1.8862  3.0619 -0.4595
 1282ESO    H1a22380   2.188   5.189   1.584  1.6134 -0.0776 -0.0156
 1282ESO    C2a22381   2.230   5.012   1.470  1.0289  0.2860  0.5848
 1282ESO    H2a22382   2.321   4.982   1.427 -2.7106  1.8901 -0.6672
 1282ESO    H2a22383   2.175   5.060   1.386  1.0663 -1.5704 -0.3538
 1282ESO    H2a22384   2.170   4.925   1.491  1.1060 -0.4868 -1.2736
 1283ESO     O122385   5.674   2.539   2.796 -0.0363 -0.2136  0.3312
 1283ESO     O122386   5.725   2.623   2.573  0.3587 -0.0442 -0.1892
 1283ESO     O122387   5.883   2.656   2.758 -0.2898  0.5981 -0.7559
 1283ESO      S22388   5.777   2.572   2.698  0.0671  0.1487  0.0653
 1283ESO     O222389   5.848   2.441   2.665 -0.3415 -0.6515  0.2885
 1283ESO    C1a22390   5.972   2.440   2.590 -0.3857 -0.2447 -0.0844
 1283ESO    H1a22391   5.958   2.485   2.488  1.8226 -0.6196  0.8403
 1283ESO    H1a22392   6.045   2.502   2.635 -0.3335 -0.0699  2.0077
 1283ESO    C2a22393   6.033   2.303   2.591  0.2533  0.6950 -0.1557
 1283ESO    H2a22394   6.126   2.302   2.534 -2.1754  1.6134 -0.2604
 1283ESO    H2a22395   5.956   2.228   2.554 -2.4785  1.8137 -3.2845
 1283ESO    H2a22396   6.065   2.271   2.686 -1.9921 -2.2230 -0.1818
 1284ESO     O122397   1.166   0.884   0.523  0.1153 -0.3695 -0.1953
 1284ESO     O122398   1.231   0.739   0.691 -0.0187  0.5250 -0.6324
 1284ESO     O122399   1.301   0.684   0.477  0.0055 -0.0518 -0.1560
 1284ESO      S22400   1.271   0.794   0.563  0.1478  0.0470 -0.6654
 1284ESO     O222401   1.410   0.868   0.578 -0.9561 -0.0676  0.2132
 1284ESO    C1a22402   1.418   1.007   0.575  0.5740 -0.7019  0.3325
 1284ESO    H1a22403   1.332   1.053   0.525  0.0005  1.8176 -0.7915
 1284ESO    H1a22404   1.434   1.042   0.679  0.3189  0.5063  1.0827
 1284ESO    C2a22405   1.535   1.050   0.486  0.4545 -0.3270  0.1788
 1284ESO    H2a22406   1.629   1.013   0.517  1.7744 -0.4592 -1.0008
 1284ESO    H2a22407   1.536   1.167   0.493  2.8520 -1.6982 -3.2138
 1284ESO    H2a22408   1.515   1.007   0.385 -1.0419 -0.6820  0.9409
 1285ESO     O122409   0.966   1.700   2.985 -0.2381  0.1195 -0.8623
 1285ESO     O122410   0.804   1.575   3.095 -0.2548 -0.1513 -0.0750
 1285ESO     O122411   0.750   1.750   2.934  0.1831  0.0191  0.0433
 1285ESO      S22412   0.838   1.643   2.975  0.1191 -0.4200 -0.3722
 1285ESO     O222413   0.836   1.540   2.860 -0.4263 -0.3301 -0.1431
 1285ESO    C1a22414   0.710   1.468   2.837 -0.1292 -0.0718 -0.1109
 1285ESO    H1a22415   0.637   1.496   2.903  2.0378  0.1271 -2.3755
 1285ESO    H1a22416   0.679   1.486   2.737  0.1402  4.2277 -1.2860
 1285ESO    C2a22417   0.744   1.317   2.841 -0.0265  0.3867 -0.7486
 1285ESO    H2a22418   0.747   1.284   2.945 -1.2808 -0.1419 -0.6987
 1285ESO    H2a22419   0.841   1.294   2.797  0.9809  0.1384  0.9639
 1285ESO    H2a22420   0.673   1.248   2.795  0.1094 -1.8473  0.0391
 1286ESO     O122421   5.813   6.671   1.370  0.1512 -0.1861  0.1993
 1286ESO     O122422   5.688   6.463   1.356 -0.2248  0.2070 -0.8962
 1286ESO     O122423   5.897   6.488   1.249  0.4176  0.0831 -0.0338
 1286ESO      S22424   5.818   6.526   1.362 -0.2847 -0.1861  0.1944
 1286ESO     O222425   5.897   6.469   1.485 -0.3609 -0.0055  0.3484
 1286ESO    C1a22426   6.039   6.487   1.500 -0.5124  0.2645  0.3606
 1286ESO    H1a22427   6.096   6.472   1.404  2.5214 -0.5467 -0.1479
 1286ESO    H1a22428   6.062   6.586   1.547 -0.4752 -2.0332  0.5610
 1286ESO    C2a22429   6.091   6.377   1.588 -0.7380  0.5477 -0.3295
 1286ESO    H2a22430   6.059   6.288   1.548  1.2409  2.5805  2.1284
 1286ESO    H2a22431   6.056   6.370   1.694  2.7254  1.8441  0.9009
 1286ESO    H2a22432   6.197   6.390   1.592  0.2912  1.8541 -1.2789
 1287ESO     O122433   3.576   4.592   6.008  0.0867 -0.0883  0.0914
 1287ESO     O122434   3.421   4.416   6.054 -0.3786  0.2684  0.3828
 1287ESO     O122435   3.504   4.544   6.232 -0.0280  0.6114  0.0843
 1287ESO      S22436   3.473   4.540   6.092 -0.2558  0.1507  0.0232
 1287ESO     O222437   3.349   4.646   6.072 -0.5508 -0.2866 -0.1451
 1287ESO    C1a22438   3.291   4.652   5.930  0.5660  0.7625 -0.3429
 1287ESO    H1a22439   3.357   4.711   5.867 -0.3650  0.3380  0.9182
 1287ESO    H1a22440   3.275   4.551   5.894 -0.1280 -0.6325  0.3383
 1287ESO    C2a22441   3.152   4.713   5.933  0.3346 -0.1746  0.5721
 1287ESO    H2a22442   3.151   4.817   5.960 -2.4915 -1.9207 -2.7386
 1287ESO    H2a22443   3.083   4.669   6.006 -4.6828  0.6096  1.6235
 1287ESO    H2a22444   3.104   4.713   5.839 -1.6371 -0.4137  0.7223
 1288ESO     O122445   4.809   3.989   3.183  0.3766  0.3550  0.2171
 1288ESO     O122446   4.598   4.096   3.231 -0.3360  0.4863  0.2884
 1288ESO     O122447   4.631   3.969   3.023 -0.2747 -0.1842 -0.6456
 1288ESO      S22448   4.665   3.986   3.161 -0.3703  0.3076 -0.3926
 1288ESO     O222449   4.630   3.851   3.231  0.3278  0.1143 -0.4714
 1288ESO    C1a22450   4.487   3.816   3.237  0.1820  0.2264 -0.5297
 1288ESO    H1a22451   4.447   3.859   3.324 -0.9990  2.2494  1.3279
 1288ESO    H1a22452   4.436   3.848   3.149  1.3527  0.6690 -1.1461
 1288ESO    C2a22453   4.479   3.666   3.256 -0.4692 -0.1438  0.2451
 1288ESO    H2a22454   4.536   3.621   3.175 -1.5391 -0.6491 -0.3142
 1288ESO    H2a22455   4.380   3.620   3.252  1.6818  0.7371 -1.5281
 1288ESO    H2a22456   4.523   3.627   3.347 -1.9927 -1.9849 -0.7230
 1289ESO     O122457   5.617   1.231   2.941 -0.4275  0.1112  0.3706
 1289ESO     O122458   5.443   1.060   2.925  0.0468  0.1651  0.4706
 1289ESO     O122459   5.580   1.100   2.737  0.6240 -0.1682 -0.0945
 1289ESO      S22460   5.572   1.102   2.880  0.1159 -0.1862  0.2089
 1289ESO     O222461   5.674   0.987   2.935 -0.2802 -0.3765  0.4531
 1289ESO    C1a22462   5.813   1.002   2.901  0.0478  0.2803 -0.0239
 1289ESO    H1a22463   5.836   1.014   2.799 -3.9389 -0.6955  0.8454
 1289ESO    H1a22464   5.857   1.091   2.951  1.4285  1.4186 -2.7719
 1289ESO    C2a22465   5.891   0.884   2.949  0.3211 -0.3023 -0.1493
 1289ESO    H2a22466   5.905   0.903   3.058 -0.7921  1.7598  1.5138
 1289ESO    H2a22467   5.989   0.876   2.908  1.2144 -2.2239 -1.3057
 1289ESO    H2a22468   5.841   0.788   2.938  1.0422  1.7577 -4.0471
 1290ESO     O122469   1.688   4.952   4.368 -0.0176 -0.4117  0.1277
 1290ESO     O122470   1.875   4.846   4.265  0.0419  0.3125 -0.2850
 1290ESO     O122471   1.702   4.713   4.368 -0.3884  0.0006  0.3302
 1290ESO      S22472   1.738   4.834   4.296 -0.1170 -0.3141  0.1703
 1290ESO     O222473   1.663   4.835   4.149 -0.4607  0.1476  0.3482
 1290ESO    C1a22474   1.660   4.709   4.076 -1.4221  0.9035  0.3712
 1290ESO    H1a22475   1.761   4.654   4.079 -0.9410 -0.1065  2.1164
 1290ESO    H1a22476   1.587   4.649   4.121 -1.0490 -1.2385 -1.2498
 1290ESO    C2a22477   1.618   4.732   3.937  0.0902  0.3861  0.0524
 1290ESO    H2a22478   1.607   4.639   3.884  0.9844 -0.0729  0.7011
 1290ESO    H2a22479   1.691   4.795   3.882  0.5817  1.8455  1.2492
 1290ESO    H2a22480   1.523   4.790   3.932  0.9701  0.0365 -2.0083
 1291ESO     O122481   4.954   4.112   1.053  0.8916  1.0920 -1.1722
 1291ESO     O122482   4.734   4.128   0.958 -0.1565  0.2104 -0.0163
 1291ESO     O122483   4.819   3.908   1.025  0.1142  0.4920 -0.2817
 1291ESO      S22484   4.822   4.051   1.053 -0.2358 -0.1049  0.0559
 1291ESO     O222485   4.757   4.063   1.200 -0.2476  0.2672  0.5188
 1291ESO    C1a22486   4.781   4.178   1.282 -0.0653  0.3046 -0.2373
 1291ESO    H1a22487   4.883   4.216   1.274  0.2988 -0.8058  2.6780
 1291ESO    H1a22488   4.713   4.261   1.250  0.7919 -1.3129 -0.1882
 1291ESO    C2a22489   4.732   4.146   1.424  0.2761 -0.6778  0.5395
 1291ESO    H2a22490   4.769   4.213   1.502 -0.5535  0.5402 -0.4028
 1291ESO    H2a22491   4.762   4.048   1.452 -2.6126  0.3254 -0.3352
 1291ESO    H2a22492   4.624   4.159   1.425 -2.1780  0.0127  0.6132
 1292ESO     O122493   2.440   4.843   6.414 -0.0622 -0.3217 -0.0885
 1292ESO     O122494   2.410   4.610   6.357  0.3204 -0.0096  0.1041
 1292ESO     O122495   2.256   4.784   6.281  0.3618 -0.5128  0.3725
 1292ESO      S22496   2.392   4.752   6.320 -0.6046  0.3542  0.0632
 1292ESO     O222497   2.470   4.776   6.183  0.2832 -0.5724 -0.1258
 1292ESO    C1a22498   2.422   4.703   6.066 -0.1987 -0.3352 -0.2323
 1292ESO    H1a22499   2.344   4.638   6.099 -0.0219  3.4456 -0.5930
 1292ESO    H1a22500   2.365   4.777   5.995 -0.3122 -1.2700 -1.8693
 1292ESO    C2a22501   2.539   4.641   5.991 -0.5637  0.4699 -0.4110
 1292ESO    H2a22502   2.510   4.561   5.935  0.9337 -0.0022  2.0326
 1292ESO    H2a22503   2.621   4.599   6.048  0.1174  1.6034  0.2805
 1292ESO    H2a22504   2.574   4.721   5.926  0.9260  2.4566  1.4267
 1293ESO     O122505   0.522   4.035   6.378 -0.2104 -0.3847 -0.6259
 1293ESO     O122506   0.582   4.260   6.328 -0.5255 -0.1873  0.2964
 1293ESO     O122507   0.422   4.147   6.194 -0.4089  0.1833 -0.3285
 1293ESO      S22508   0.481   4.161   6.325  0.0831  0.0943  0.3783
 1293ESO     O222509   0.361   4.202   6.413  0.2134 -0.5670 -0.1045
 1293ESO    C1a22510   0.378   4.224   6.550  0.3150  1.0818 -1.1012
 1293ESO    H1a22511   0.397   4.125   6.595 -0.5355 -0.2705 -0.5444
 1293ESO    H1a22512   0.459   4.288   6.562 -0.9615 -0.0232 -1.5832
 1293ESO    C2a22513   0.252   4.296   6.593  0.0125 -0.0049  0.5209
 1293ESO    H2a22514   0.265   4.333   6.696  0.3539  0.4495  1.4215
 1293ESO    H2a22515   0.172   4.230   6.583  4.6672  0.1174 -0.3026
 1293ESO    H2a22516   0.236   4.384   6.522  1.1894 -1.0505 -1.3360
 1294ESO     O122517   2.975   1.240   3.431 -0.1590  0.0175 -0.4823
 1294ESO     O122518   3.148   1.402   3.408  0.2829  0.0698 -0.4468
 1294ESO     O122519   3.203   1.169   3.400  0.0053 -0.9327  0.5634
 1294ESO      S22520   3.103   1.270   3.372  0.3047  0.0886 -0.2345
 1294ESO     O222521   3.086   1.279   3.220 -0.4233 -0.4718  0.0155
 1294ESO    C1a22522   3.050   1.159   3.145 -0.2941  0.0021  0.4075
 1294ESO    H1a22523   3.109   1.067   3.190  2.3272  0.2943 -0.0064
 1294ESO    H1a22524   2.942   1.154   3.148  0.2778  1.0313  1.1039
 1294ESO    C2a22525   3.095   1.180   2.994  0.6781  0.0231  0.2934
 1294ESO    H2a22526   3.204   1.171   2.977  0.9630  0.7838 -1.7643
 1294ESO    H2a22527   3.064   1.284   2.962 -2.6030 -1.0621  3.2147
 1294ESO    H2a22528   3.037   1.116   2.924 -1.6509  0.3474  1.5901
 1295ESO     O122529   4.056   5.075   0.712 -0.9198  0.1779  0.7049
 1295ESO     O122530   3.984   5.146   0.500 -0.6775 -0.0884 -0.7938
 1295ESO     O122531   4.212   5.117   0.531 -0.8378  0.1485 -0.1977
 1295ESO      S22532   4.080   5.072   0.571 -0.3377  0.0607 -0.1160
 1295ESO     O222533   4.059   4.919   0.518  1.0757 -0.4649 -0.1649
 1295ESO    C1a22534   3.923   4.868   0.523 -0.1093 -0.0577  0.5602
 1295ESO    H1a22535   3.869   4.916   0.607  0.8697 -1.6010  3.5781
 1295ESO    H1a22536   3.880   4.882   0.418  1.1517 -2.7928  2.6792
 1295ESO    C2a22537   3.933   4.726   0.559  0.5538  0.1218  0.3863
 1295ESO    H2a22538   3.836   4.680   0.571  0.5442  0.6094  1.9847
 1295ESO    H2a22539   3.980   4.712   0.655 -1.5398  0.6473  1.2751
 1295ESO    H2a22540   3.977   4.672   0.477 -1.9057  0.4648 -1.4565
 1296ESO     O122541   5.734   5.383   5.879 -0.1815 -0.2438 -0.5769
 1296ESO     O122542   5.714   5.250   6.077  0.0788 -0.2457  0.0927
 1296ESO     O122543   5.527   5.293   5.933 -0.4442  0.5368 -0.5821
 1296ESO      S22544   5.666   5.277   5.945 -0.2997  0.0247  0.0162
 1296ESO     O222545   5.699   5.147   5.860  0.4328  0.3682  0.5208
 1296ESO    C1a22546   5.831   5.095   5.864 -0.3253  0.1497 -0.1819
 1296ESO    H1a22547   5.894   5.171   5.908 -2.5102  0.7958 -1.7156
 1296ESO    H1a22548   5.839   5.003   5.921  0.9296  0.8274  1.8911
 1296ESO    C2a22549   5.875   5.093   5.721 -0.7125 -0.1630  0.5887
 1296ESO    H2a22550   5.811   5.028   5.670  2.0091 -1.0600  1.5526
 1296ESO    H2a22551   5.974   5.045   5.710 -1.2655 -1.3720  1.6360
 1296ESO    H2a22552   5.876   5.191   5.672  0.8121  2.3745  1.2006
 1297ESO     O122553   4.754   3.687   3.869  0.4674  0.6638 -0.4888
 1297ESO     O122554   4.519   3.615   3.852 -0.8109  0.4570 -0.6995
 1297ESO     O122555   4.657   3.590   3.675  0.3488  0.3134 -0.0339
 1297ESO      S22556   4.656   3.592   3.818 -0.2546  0.0618  0.3068
 1297ESO     O222557   4.699   3.455   3.872  0.2992  0.1846  0.0371
 1297ESO    C1a22558   4.612   3.348   3.835  0.3240 -0.2363  0.2986
 1297ESO    H1a22559   4.563   3.305   3.918 -0.9463 -1.1162 -2.4794
 1297ESO    H1a22560   4.538   3.380   3.764  1.8610  1.1951  1.6875
 1297ESO    C2a22561   4.687   3.230   3.773  0.1700  0.0333 -0.4568
 1297ESO    H2a22562   4.717   3.251   3.671 -1.5014 -0.7357  0.4576
 1297ESO    H2a22563   4.623   3.144   3.770 -3.8615  1.2138 -1.3275
 1297ESO    H2a22564   4.776   3.210   3.826  0.4892 -0.3392 -3.3515
 1298ESO     O122565   4.232   4.904   1.617 -0.0869  0.3830  0.2514
 1298ESO     O122566   4.004   4.982   1.607  0.1126 -0.5933  0.3361
 1298ESO     O122567   4.171   5.088   1.477  0.0632 -0.1033 -0.1401
 1298ESO      S22568   4.124   4.968   1.537 -0.0497  0.1223 -0.7119
 1298ESO     O222569   4.088   4.864   1.425  0.0166 -0.1737  1.1340
 1298ESO    C1a22570   4.094   4.721   1.449 -0.9024  0.4221 -0.4690
 1298ESO    H1a22571   4.194   4.678   1.431 -0.6042 -1.1968  0.6077
 1298ESO    H1a22572   4.075   4.707   1.554 -1.2883  0.9182 -1.4474
 1298ESO    C2a22573   3.985   4.652   1.373  0.1470  0.0325  0.4329
 1298ESO    H2a22574   3.895   4.678   1.423 -2.5002  1.3693 -1.1809
 1298ESO    H2a22575   3.992   4.544   1.368 -1.3897  0.3194  2.8430
 1298ESO    H2a22576   3.976   4.689   1.275 -0.0431  1.3095  0.3162
 1299ESO     O122577   3.450   2.419   5.738  0.3806  0.0837  0.9324
 1299ESO     O122578   3.518   2.359   5.511  0.0431  0.2397  0.5580
 1299ESO     O122579   3.628   2.537   5.623  0.3468 -0.4643  0.4852
 1299ESO      S22580   3.556   2.411   5.641 -0.0110 -0.6776 -0.0285
 1299ESO     O222581   3.664   2.312   5.705  0.0739  0.0186 -0.4274
 1299ESO    C1a22582   3.768   2.269   5.624 -0.0657  0.1763 -0.0336
 1299ESO    H1a22583   3.732   2.200   5.545 -0.0822 -0.3864  0.0626
 1299ESO    H1a22584   3.813   2.352   5.573 -2.8750 -0.4456 -3.4501
 1299ESO    C2a22585   3.864   2.193   5.713 -0.7555  0.1260  0.8136
 1299ESO    H2a22586   3.957   2.239   5.736 -1.1234 -1.1740 -1.9106
 1299ESO    H2a22587   3.892   2.091   5.681  0.5203 -2.3617 -0.0859
 1299ESO    H2a22588   3.812   2.174   5.804  0.6463  2.3926  1.8856
 1300ESO     O122589   2.742   5.067   1.127  0.2308 -0.4281 -0.4356
 1300ESO     O122590   2.559   4.918   1.137 -0.4473  0.2371 -0.3672
 1300ESO     O122591   2.689   4.927   0.940 -0.5569 -0.0577 -0.1663
 1300ESO      S22592   2.691   4.942   1.082  0.4780 -0.4473  0.2859
 1300ESO     O222593   2.781   4.816   1.139  0.0687 -0.2735  0.1335
 1300ESO    C1a22594   2.914   4.805   1.091  0.0517 -0.2941 -0.0197
 1300ESO    H1a22595   2.951   4.908   1.071  2.4864  0.3459  0.8963
 1300ESO    H1a22596   2.964   4.774   1.183 -1.2685  0.4977 -0.2221
 1300ESO    C2a22597   2.925   4.698   0.987  0.0262  0.2383  1.4112
 1300ESO    H2a22598   3.028   4.673   0.973 -0.8512  0.9623 -0.0159
 1300ESO    H2a22599   2.894   4.728   0.887 -1.1499 -1.7504  0.0649
 1300ESO    H2a22600   2.880   4.603   1.016 -0.8164 -1.0037  1.2425
 1301ESO     O122601   6.706   5.601   0.291  0.4686  0.3385 -0.1797
 1301ESO     O122602   6.937   5.550   0.277  0.0955  0.0592 -0.6745
 1301ESO     O122603   6.824   5.496   0.477 -0.1982  0.1216 -0.4121
 1301ESO      S22604   6.813   5.512   0.337  0.2153  0.1742  0.1905
 1301ESO     O222605   6.780   5.370   0.289  0.0443 -0.1063 -0.3760
 1301ESO    C1a22606   6.697   5.262   0.357  0.7721 -0.5841 -0.1078
 1301ESO    H1a22607   6.704   5.171   0.295  0.0744 -0.5271 -1.9407
 1301ESO    H1a22608   6.732   5.241   0.455 -0.5656  1.9943  0.4539
 1301ESO    C2a22609   6.554   5.315   0.358  0.2486 -0.1358  0.1856
 1301ESO    H2a22610   6.530   5.363   0.266  0.6216 -1.5077 -1.7292
 1301ESO    H2a22611   6.547   5.391   0.444  1.1783 -0.1024 -0.0162
 1301ESO    H2a22612   6.475   5.237   0.375  0.6887 -0.9967  0.5197
 1302ESO     O122613   0.580   4.953   1.893  0.2346  0.7320 -0.4964
 1302ESO     O122614   0.552   4.783   1.735  0.1908 -0.5722 -0.1655
 1302ESO     O122615   0.381   4.947   1.760  0.0676 -0.0017 -0.0861
 1302ESO      S22616   0.521   4.916   1.774 -0.2211 -0.0878  0.2300
 1302ESO     O222617   0.602   4.998   1.662 -0.8216  0.9726  0.0903
 1302ESO    C1a22618   0.600   4.989   1.520  0.1895 -0.2218  0.0633
 1302ESO    H1a22619   0.697   5.008   1.480  0.8499  1.1164  0.9972
 1302ESO    H1a22620   0.557   4.892   1.487 -0.0101 -1.9152 -0.4090
 1302ESO    C2a22621   0.503   5.089   1.479 -0.0511  0.5025  0.2434
 1302ESO    H2a22622   0.401   5.083   1.524 -0.4473 -0.4495 -1.6757
 1302ESO    H2a22623   0.480   5.080   1.372  1.4810  1.4704 -2.3777
 1302ESO    H2a22624   0.548   5.184   1.491  1.0688 -0.7802  1.4133
 1303ESO     O122625   0.864   5.635   0.850 -0.3434  0.1041  0.0775
 1303ESO     O122626   1.000   5.709   0.667  0.1690 -0.3024 -0.0745
 1303ESO     O122627   1.057   5.771   0.890 -0.3310 -0.0536 -0.1700
 1303ESO      S22628   0.997   5.672   0.805  0.2487 -0.8384  0.3457
 1303ESO     O222629   1.081   5.536   0.825  0.2299 -0.0609 -0.2849
 1303ESO    C1a22630   1.216   5.517   0.768  0.5395  0.1669 -0.2328
 1303ESO    H1a22631   1.225   5.419   0.725  1.2436 -3.3574  0.0620
 1303ESO    H1a22632   1.243   5.598   0.697  2.5783  2.1409  1.8914
 1303ESO    C2a22633   1.307   5.530   0.882  0.6395  0.1573  0.0390
 1303ESO    H2a22634   1.402   5.484   0.858  1.1878 -1.2717  0.8564
 1303ESO    H2a22635   1.271   5.473   0.965 -2.3385  0.3515  0.7228
 1303ESO    H2a22636   1.308   5.632   0.918  1.2990  2.9533  2.0276
 1304ESO     O122637   2.864   2.664   6.643  0.2958 -0.0481  0.3583
 1304ESO     O122638   2.821   2.719   6.412  0.2559  0.1109  0.2368
 1304ESO     O122639   3.030   2.622   6.478  0.3002 -0.3895  0.3597
 1304ESO      S22640   2.886   2.633   6.503 -0.0011  0.0641  0.3456
 1304ESO     O222641   2.831   2.491   6.476 -0.2789 -0.3799 -0.4510
 1304ESO    C1a22642   2.901   2.375   6.517 -0.7763  0.7192 -0.3020
 1304ESO    H1a22643   2.998   2.374   6.472  0.4022  2.6735 -1.8578
 1304ESO    H1a22644   2.916   2.379   6.627 -1.8345 -2.8566  1.1887
 1304ESO    C2a22645   2.821   2.253   6.474  0.6947 -0.0134  0.1870
 1304ESO    H2a22646   2.719   2.291   6.472  0.4635  0.8326 -1.5384
 1304ESO    H2a22647   2.833   2.172   6.544  1.0067 -0.9889 -0.7612
 1304ESO    H2a22648   2.856   2.209   6.374 -0.7866 -0.8957 -1.0433
 1305ESO     O122649   6.419   3.314   0.500  0.1122 -0.2379  0.6363
 1305ESO     O122650   6.202   3.214   0.501  0.4939  0.6757  0.4232
 1305ESO     O122651   6.403   3.088   0.546  0.1179 -0.4545 -0.1948
 1305ESO      S22652   6.337   3.213   0.554 -0.4404  0.0936 -0.1459
 1305ESO     O222653   6.332   3.250   0.711  0.3032 -0.1573 -0.8069
 1305ESO    C1a22654   6.270   3.157   0.803 -0.2840  0.7280 -0.5083
 1305ESO    H1a22655   6.200   3.202   0.870  2.1226  2.5730 -1.5669
 1305ESO    H1a22656   6.223   3.082   0.747 -1.5884 -2.0766  1.7856
 1305ESO    C2a22657   6.375   3.093   0.885 -0.3310 -0.6049 -0.9922
 1305ESO    H2a22658   6.453   3.165   0.910 -0.0661 -2.3080 -0.7746
 1305ESO    H2a22659   6.415   3.007   0.832 -2.0574 -2.1226  0.9669
 1305ESO    H2a22660   6.338   3.058   0.980 -0.5343  0.0785 -2.9802
 1306ESO     O122661   3.530   2.545   3.575  0.0110  0.2891 -0.4894
 1306ESO     O122662   3.474   2.743   3.448 -0.2380  0.1377  0.6118
 1306ESO     O122663   3.340   2.537   3.448  0.0425  0.1822 -0.4640
 1306ESO      S22664   3.425   2.626   3.520 -0.2169 -0.1128  0.1221
 1306ESO     O222665   3.338   2.674   3.635  0.0481  0.1308 -0.8338
 1306ESO    C1a22666   3.396   2.736   3.758  0.2833  0.1959 -0.7745
 1306ESO    H1a22667   3.424   2.661   3.832 -0.6742 -0.1154  1.0145
 1306ESO    H1a22668   3.475   2.806   3.732  0.3802 -0.1480  1.3194
 1306ESO    C2a22669   3.296   2.818   3.833  0.2037 -0.5330 -0.5227
 1306ESO    H2a22670   3.265   2.911   3.785  0.0853 -0.7444  2.9525
 1306ESO    H2a22671   3.332   2.838   3.932 -1.4272 -1.5769 -1.8087
 1306ESO    H2a22672   3.198   2.763   3.852 -3.9472 -2.1429 -0.4361
 1307ESO     O122673   5.419   1.131   6.742 -0.3959 -0.2384  0.2522
 1307ESO     O122674   5.201   1.098   6.827 -0.2149 -0.0026 -0.1311
 1307ESO     O122675   5.237   1.255   6.652  0.3868  0.4523 -0.5964
 1307ESO      S22676   5.277   1.131   6.714  0.1882 -0.2535 -0.3985
 1307ESO     O222677   5.251   1.013   6.607 -0.1300 -0.4043  0.5038
 1307ESO    C1a22678   5.116   1.002   6.551 -0.2055  1.1597 -0.5987
 1307ESO    H1a22679   5.034   0.996   6.626 -0.4390  2.3716 -0.1961
 1307ESO    H1a22680   5.089   1.089   6.490  0.9229 -0.1167 -0.8988
 1307ESO    C2a22681   5.113   0.885   6.470 -0.9638 -0.7969  0.0747
 1307ESO    H2a22682   5.177   0.897   6.390  0.0936  0.2195 -1.0052
 1307ESO    H2a22683   5.020   0.875   6.420  0.4218  0.0118  0.1935
 1307ESO    H2a22684   5.143   0.797   6.520  0.2289 -1.0737  1.4717
 1308ESO     O122685   1.532   4.937   1.950  0.0728 -0.0262 -0.0614
 1308ESO     O122686   1.671   5.126   1.935  0.2453 -0.3509  0.7426
 1308ESO     O122687   1.734   4.940   2.071  0.2996 -0.1523  0.1159
 1308ESO      S22688   1.668   4.983   1.952  0.3884 -0.1342  0.1463
 1308ESO     O222689   1.744   4.911   1.837 -0.6902 -0.0018  0.8733
 1308ESO    C1a22690   1.888   4.942   1.816 -0.0950  0.3424  0.7090
 1308ESO    H1a22691   1.894   5.052   1.794  0.4029 -1.9813  2.1486
 1308ESO    H1a22692   1.947   4.924   1.902  1.5484  0.0409  0.3010
 1308ESO    C2a22693   1.942   4.870   1.690  0.0727 -0.2978 -0.1569
 1308ESO    H2a22694   2.046   4.905   1.663  1.5344 -0.2646 -1.9387
 1308ESO    H2a22695   1.887   4.888   1.600  1.3456  0.3662  2.3208
 1308ESO    H2a22696   1.948   4.761   1.698  0.6606 -0.8270  0.3345
 1309ESO     O122697   5.668   0.974   5.086 -0.0184 -0.0130 -0.7279
 1309ESO     O122698   5.652   0.971   5.324  0.3102 -0.0212 -0.3966
 1309ESO     O122699   5.857   1.015   5.228  0.4423  0.3977 -0.0389
 1309ESO      S22700   5.714   1.027   5.211  0.7865  0.2570  0.3727
 1309ESO     O222701   5.683   1.172   5.218  0.4441  0.3743  0.3090
 1309ESO    C1a22702   5.733   1.269   5.117 -0.5756 -0.7003 -0.1492
 1309ESO    H1a22703   5.843   1.272   5.112  0.5312  0.9663  1.5322
 1309ESO    H1a22704   5.711   1.244   5.012  1.1364  0.3577  3.2094
 1309ESO    C2a22705   5.671   1.399   5.148  0.2587 -0.0476  0.2692
 1309ESO    H2a22706   5.671   1.418   5.258  0.2370  0.0007  1.0930
 1309ESO    H2a22707   5.574   1.425   5.102  0.8521  0.9093  1.2078
 1309ESO    H2a22708   5.742   1.474   5.112  1.3336 -0.4144  0.1870
 1310ESO     O122709   6.501   6.186   4.377  0.2306 -0.1866  0.3873
 1310ESO     O122710   6.285   6.269   4.420 -0.8897  0.4177 -0.7156
 1310ESO     O122711   6.453   6.350   4.551 -0.2895  0.2631 -0.4868
 1310ESO      S22712   6.426   6.296   4.421  0.1944  0.1745 -0.2491
 1310ESO     O222713   6.444   6.406   4.321 -0.5965  0.2522  0.5953
 1310ESO    C1a22714   6.389   6.540   4.336  0.0742 -0.1011  0.4809
 1310ESO    H1a22715   6.318   6.539   4.422  0.9918 -0.7820  1.6459
 1310ESO    H1a22716   6.468   6.611   4.351 -0.0012  1.0551 -0.4345
 1310ESO    C2a22717   6.319   6.585   4.211  0.2592 -0.1113 -0.1232
 1310ESO    H2a22718   6.236   6.516   4.204 -1.1324 -0.2834  0.1905
 1310ESO    H2a22719   6.389   6.586   4.128 -2.2536 -0.5736 -3.7908
 1310ESO    H2a22720   6.283   6.685   4.228 -0.7767 -1.0065  0.7284
 1311ESO     O122721   1.083   3.361   0.485  0.4450 -0.2951  0.4161
 1311ESO     O122722   0.867   3.474   0.486  0.3970 -0.2353  0.0435
 1311ESO     O122723   1.012   3.491   0.290 -0.6888 -1.0421  0.1897
 1311ESO      S22724   0.970   3.414   0.404 -0.0882 -0.1597 -0.0834
 1311ESO     O222725   0.901   3.282   0.353 -0.2922 -0.4892  0.2380
 1311ESO    C1a22726   0.797   3.280   0.238 -0.3009 -0.1293 -0.9755
 1311ESO    H1a22727   0.714   3.343   0.271 -2.3206  1.3974 -0.8461
 1311ESO    H1a22728   0.844   3.314   0.142  0.6270 -3.7048  0.2576
 1311ESO    C2a22729   0.755   3.129   0.240 -0.5067 -0.3416  0.5089
 1311ESO    H2a22730   0.665   3.099   0.190 -3.4720 -2.2098  2.8053
 1311ESO    H2a22731   0.741   3.087   0.337  1.8865 -0.7679 -0.4026
 1311ESO    H2a22732   0.841   3.078   0.198  1.2593  0.5761 -0.3184
 1312ESO     O122733   2.502   4.806   2.863 -0.3789  0.3083 -0.6424
 1312ESO     O122734   2.423   4.580   2.839 -0.5885 -0.6553  0.0887
 1312ESO     O122735   2.372   4.743   2.678 -0.0691  0.7301  0.0405
 1312ESO      S22736   2.464   4.700   2.774 -0.0048 -0.2081 -0.1564
 1312ESO     O222737   2.592   4.657   2.699  0.5218  0.0687  0.1151
 1312ESO    C1a22738   2.676   4.763   2.640 -0.0205  0.2958  0.4955
 1312ESO    H1a22739   2.619   4.847   2.615  0.4131 -4.1646  0.6662
 1312ESO    H1a22740   2.762   4.782   2.707  1.6570 -0.2942 -1.3016
 1312ESO    C2a22741   2.726   4.697   2.510  0.5090  0.5794  0.1651
 1312ESO    H2a22742   2.773   4.776   2.449  1.6120  0.0296  1.7343
 1312ESO    H2a22743   2.649   4.648   2.452  0.7601  0.4279  0.3869
 1312ESO    H2a22744   2.797   4.619   2.534 -1.7660 -1.1756  0.1475
 1313ESO     O122745   1.318   1.561   3.490 -0.3355  0.2614 -0.2876
 1313ESO     O122746   1.478   1.725   3.436 -0.2066  0.1402  0.2645
 1313ESO     O122747   1.309   1.768   3.592 -0.0184  0.0072  0.6700
 1313ESO      S22748   1.393   1.668   3.535 -0.0596 -0.6173 -0.0275
 1313ESO     O222749   1.482   1.602   3.644  0.2612  0.2884 -0.5150
 1313ESO    C1a22750   1.424   1.560   3.774  0.2584 -0.1110 -0.3208
 1313ESO    H1a22751   1.369   1.641   3.819  1.8957  2.3331 -0.9437
 1313ESO    H1a22752   1.361   1.475   3.751  2.0482 -1.1634 -0.7425
 1313ESO    C2a22753   1.544   1.511   3.854 -0.2858  0.5772 -0.6765
 1313ESO    H2a22754   1.511   1.448   3.933 -1.0396  0.8581 -0.3647
 1313ESO    H2a22755   1.593   1.593   3.905 -2.9369 -2.1754  0.0899
 1313ESO    H2a22756   1.621   1.461   3.801  1.6967  1.3457  1.8635
 1314ESO     O122757   2.952   6.674   1.232  0.5638 -0.1021  0.5629
 1314ESO     O122758   3.113   6.633   1.062 -0.0482 -0.1351 -0.0039
 1314ESO     O122759   3.155   6.790   1.224 -0.4661  0.5091  0.7686
 1314ESO      S22760   3.090   6.667   1.201  0.4541  0.0762 -0.0209
 1314ESO     O222761   3.161   6.562   1.297 -0.0447 -0.5875 -0.5376
 1314ESO    C1a22762   3.161   6.424   1.259  0.5053 -0.2233  0.7694
 1314ESO    H1a22763   3.061   6.382   1.243 -0.1654  0.1753 -1.9009
 1314ESO    H1a22764   3.215   6.410   1.164  0.2245  0.0564 -0.2453
 1314ESO    C2a22765   3.222   6.363   1.382 -0.2009 -0.8836  0.2071
 1314ESO    H2a22766   3.161   6.383   1.466  2.2614  3.1255  3.2101
 1314ESO    H2a22767   3.319   6.407   1.400  3.4221  2.3976 -1.6653
 1314ESO    H2a22768   3.238   6.253   1.378 -0.6680 -1.3463  1.5811
 1315ESO     O122769   0.017   3.544   2.787  0.0183 -0.2940  0.4235
 1315ESO     O122770  -0.212   3.514   2.826  0.1194  0.0162 -0.7182
 1315ESO     O122771  -0.100   3.346   2.713  0.2844 -0.3234  0.4150
 1315ESO      S22772  -0.086   3.450   2.811 -0.0443  0.0179 -0.2573
 1315ESO     O222773  -0.057   3.383   2.954  0.4065 -0.2667  0.4476
 1315ESO    C1a22774   0.048   3.286   2.971  0.4129  0.5877 -0.2144
 1315ESO    H1a22775   0.014   3.190   2.931  1.1303 -2.8694  2.5577
 1315ESO    H1a22776   0.135   3.319   2.914 -0.2588 -3.0505 -0.6632
 1315ESO    C2a22777   0.068   3.280   3.119  0.9064  0.6002 -0.1078
 1315ESO    H2a22778   0.107   3.374   3.157  1.1334  0.0360 -0.2953
 1315ESO    H2a22779   0.141   3.200   3.139 -0.1073 -1.3378  0.7266
 1315ESO    H2a22780  -0.026   3.253   3.168 -1.8632 -0.5896 -0.9527
 1316ESO     O122781   2.831   3.132   1.305  0.3038 -0.7836  0.3131
 1316ESO     O122782   2.913   3.156   1.081  0.3396 -0.4257 -0.1804
 1316ESO     O122783   3.061   3.091   1.263 -0.3815  0.1980  0.1031
 1316ESO      S22784   2.931   3.094   1.210  0.3062 -0.2052  0.2313
 1316ESO     O222785   2.891   2.948   1.181  0.1815 -0.4296 -0.3677
 1316ESO    C1a22786   2.878   2.853   1.286  0.3361  0.1607 -0.2831
 1316ESO    H1a22787   2.973   2.820   1.318 -0.5367 -2.1559 -0.4127
 1316ESO    H1a22788   2.818   2.902   1.357  1.2378  2.1674  0.4023
 1316ESO    C2a22789   2.818   2.727   1.229 -0.6964 -0.1065  0.0279
 1316ESO    H2a22790   2.886   2.684   1.150 -1.2553 -2.5089  0.4478
 1316ESO    H2a22791   2.716   2.749   1.196 -0.9340  1.3529  1.8821
 1316ESO    H2a22792   2.806   2.655   1.310 -1.8299  1.4303 -0.9739
 1317ESO     O122793   6.347   3.860   1.308 -0.2150 -0.0763  0.0949
 1317ESO     O122794   6.126   3.793   1.349  0.2823 -0.0675 -0.1078
 1317ESO     O122795   6.250   3.693   1.165  0.0784 -0.0030  0.0856
 1317ESO      S22796   6.251   3.751   1.294 -0.1981 -0.5444 -0.3818
 1317ESO     O222797   6.303   3.641   1.389 -0.4443 -0.3986 -0.8482
 1317ESO    C1a22798   6.423   3.557   1.343 -0.0070  0.4173 -0.0866
 1317ESO    H1a22799   6.395   3.474   1.279  0.0302 -0.6981  1.1937
 1317ESO    H1a22800   6.496   3.618   1.294 -0.8933 -4.4599 -1.0368
 1317ESO    C2a22801   6.474   3.471   1.467 -0.0300  0.2477 -0.0799
 1317ESO    H2a22802   6.393   3.421   1.506  1.3913 -1.2415  1.2677
 1317ESO    H2a22803   6.509   3.539   1.538  1.7841  0.5560 -0.5440
 1317ESO    H2a22804   6.551   3.402   1.439 -0.4824  0.8327 -0.0944
 1318ESO     O122805   4.416   0.685   2.387  0.1725  0.2662  0.1458
 1318ESO     O122806   4.264   0.797   2.541  0.1874 -0.7320 -0.1659
 1318ESO     O122807   4.479   0.888   2.502  0.1303 -0.0942  0.2133
 1318ESO      S22808   4.371   0.811   2.445 -0.2734 -0.1464  0.4254
 1318ESO     O222809   4.321   0.898   2.324 -0.0283 -0.3169 -0.3668
 1318ESO    C1a22810   4.298   1.040   2.354  0.4401  0.1439  1.2906
 1318ESO    H1a22811   4.273   1.039   2.457 -0.5333  0.3568  0.0803
 1318ESO    H1a22812   4.382   1.098   2.331  2.1637 -0.4800 -0.9207
 1318ESO    C2a22813   4.175   1.072   2.271 -0.3382  0.5181 -0.0924
 1318ESO    H2a22814   4.100   0.999   2.286  2.9923  2.9363  0.6542
 1318ESO    H2a22815   4.208   1.091   2.164  3.1562 -0.4715 -2.5524
 1318ESO    H2a22816   4.124   1.158   2.315 -0.0879 -2.1255  0.2346
 1319ESO     O122817   6.308   2.615   3.389  0.1456 -0.9530  0.6941
 1319ESO     O122818   6.464   2.773   3.298 -0.5528  0.0826 -0.0931
 1319ESO     O122819   6.337   2.650   3.146 -0.7268  0.0846  1.0595
 1319ESO      S22820   6.341   2.704   3.282  0.3377  0.3909  0.2998
 1319ESO     O222821   6.233   2.823   3.285  0.1232 -0.0278  0.0604
 1319ESO    C1a22822   6.119   2.824   3.201  0.1654 -0.3336 -0.1892
 1319ESO    H1a22823   6.133   2.748   3.123  0.0495 -1.2238  0.0395
 1319ESO    H1a22824   6.026   2.808   3.260 -0.3155  0.3740 -0.2054
 1319ESO    C2a22825   6.102   2.966   3.164  0.1248 -0.0113  0.4096
 1319ESO    H2a22826   6.090   3.021   3.256  1.2853 -0.9320  0.7254
 1319ESO    H2a22827   6.016   2.996   3.102  0.7564  0.9150  1.9058
 1319ESO    H2a22828   6.194   3.002   3.111 -0.0128 -2.0662  0.2511
 1320ESO     O122829   0.950   3.771   4.742 -0.0752 -0.6574  0.3993
 1320ESO     O122830   0.890   3.530   4.783  0.5625 -0.4369 -0.9809
 1320ESO     O122831   1.096   3.592   4.681  0.4853 -0.1985  0.7336
 1320ESO      S22832   0.995   3.633   4.773 -0.0212 -0.1816  0.1711
 1320ESO     O222833   1.059   3.636   4.916  0.2224  0.4423 -0.0049
 1320ESO    C1a22834   1.161   3.737   4.940  0.3887 -0.1851  0.8387
 1320ESO    H1a22835   1.259   3.704   4.897  0.1090  1.7369 -2.3965
 1320ESO    H1a22836   1.136   3.832   4.909  1.1059 -2.9053 -2.2216
 1320ESO    C2a22837   1.186   3.746   5.094  0.1990 -0.2690 -0.6312
 1320ESO    H2a22838   1.252   3.827   5.127  0.4150  0.0471  1.4528
 1320ESO    H2a22839   1.231   3.653   5.127 -2.2165 -0.1832  2.4891
 1320ESO    H2a22840   1.091   3.751   5.144 -0.7997 -0.3628 -1.5974
 1321ESO     O122841   2.417   3.657   0.930 -0.5158 -0.4423 -0.2873
 1321ESO     O122842   2.581   3.664   1.110  0.2466  0.2689  0.6579
 1321ESO     O122843   2.645   3.707   0.888 -0.4589 -0.3266  0.3706
 1321ESO      S22844   2.540   3.720   0.984  0.1905 -0.1285 -0.2405
 1321ESO     O222845   2.520   3.879   1.009 -0.4414 -0.7383  0.5358
 1321ESO    C1a22846   2.488   3.962   0.900  0.1158  0.4394  0.0371
 1321ESO    H1a22847   2.561   3.953   0.814  2.6019  2.1926  1.6313
 1321ESO    H1a22848   2.386   3.942   0.860 -1.0806 -0.4282 -0.6563
 1321ESO    C2a22849   2.494   4.100   0.958  0.8751 -0.5676  0.2593
 1321ESO    H2a22850   2.593   4.136   0.972  0.9536  0.9601  1.0393
 1321ESO    H2a22851   2.439   4.112   1.056 -3.3764  1.2540 -0.8988
 1321ESO    H2a22852   2.452   4.167   0.888  1.3475 -4.7336  0.8292
 1322ESO     O122853   0.472   5.659   5.918  0.1168 -0.1324  0.3577
 1322ESO     O122854   0.233   5.647   5.879 -0.0149  0.0161 -0.0482
 1322ESO     O122855   0.358   5.790   5.747  0.3425  0.2382 -0.3831
 1322ESO      S22856   0.358   5.668   5.821  0.3206 -0.2166 -0.0191
 1322ESO     O222857   0.386   5.543   5.720 -0.1385  0.2361 -0.0793
 1322ESO    C1a22858   0.297   5.524   5.603  0.1809 -0.5920 -0.0088
 1322ESO    H1a22859   0.292   5.415   5.586  2.2490  0.4017  0.6060
 1322ESO    H1a22860   0.196   5.553   5.627 -2.1942 -4.7078  0.9927
 1322ESO    C2a22861   0.341   5.606   5.480  0.7933 -0.6753  0.2741
 1322ESO    H2a22862   0.349   5.708   5.499 -0.8444 -1.7815  1.6808
 1322ESO    H2a22863   0.271   5.594   5.397  0.2657  1.2760 -0.5069
 1322ESO    H2a22864   0.438   5.569   5.446  0.4978  1.4157 -1.2928
 1323ESO     O122865   0.775   5.309   0.067  0.2010 -0.0596 -0.4157
 1323ESO     O122866   0.987   5.196   0.115 -0.1272  0.8253  0.3809
 1323ESO     O122867   0.984   5.409   0.015 -0.4839  0.5959 -0.1776
 1323ESO      S22868   0.913   5.320   0.104  0.4395  0.1417 -0.0738
 1323ESO     O222869   0.920   5.387   0.247  0.1585  0.1922 -0.4203
 1323ESO    C1a22870   0.838   5.507   0.266  0.2650 -0.3785  0.1603
 1323ESO    H1a22871   0.855   5.578   0.180  0.9707 -0.6604 -0.7323
 1323ESO    H1a22872   0.735   5.484   0.270 -0.9706 -0.7704  0.0990
 1323ESO    C2a22873   0.885   5.574   0.404  0.1206 -0.2472  0.2212
 1323ESO    H2a22874   0.858   5.677   0.398  0.0524  0.0400  1.6604
 1323ESO    H2a22875   0.995   5.567   0.421 -0.2909 -0.6807  2.5591
 1323ESO    H2a22876   0.835   5.529   0.492  3.1222 -2.1224 -2.1272
 1324ESO     O122877   0.643   6.656   1.357 -0.5367 -0.0444 -0.0333
 1324ESO     O122878   0.884   6.683   1.336 -0.1824  0.4038  0.0080
 1324ESO     O122879   0.811   6.464   1.407  0.2466  0.5239 -0.3481
 1324ESO      S22880   0.775   6.586   1.337  0.2577 -0.2597  0.0568
 1324ESO     O222881   0.764   6.556   1.190 -0.3294 -0.1518 -0.2077
 1324ESO    C1a22882   0.867   6.474   1.130  0.8103 -0.1426 -0.4734
 1324ESO    H1a22883   0.912   6.513   1.031 -0.6527  1.8851  1.1781
 1324ESO    H1a22884   0.947   6.467   1.199 -0.6351  0.9236  0.4454
 1324ESO    C2a22885   0.814   6.336   1.104  0.3864  0.0905  0.2229
 1324ESO    H2a22886   0.721   6.341   1.059  0.1106  0.2967 -0.9171
 1324ESO    H2a22887   0.804   6.280   1.202  1.2958  0.5731 -0.3434
 1324ESO    H2a22888   0.890   6.289   1.043  0.1756 -0.7124 -0.1567
 1325ESO     O122889   4.700   6.308   0.242 -0.4479 -0.5657  0.0603
 1325ESO     O122890   4.758   6.455   0.415 -0.1459  0.3114 -0.3503
 1325ESO     O122891   4.652   6.258   0.472  0.4057 -0.3517  0.6121
 1325ESO      S22892   4.742   6.320   0.377 -0.2027  0.3726  0.1677
 1325ESO     O222893   4.883   6.243   0.390 -0.1052 -0.9128 -0.2400
 1325ESO    C1a22894   4.948   6.237   0.516  0.1763  0.8618 -0.7330
 1325ESO    H1a22895   4.944   6.339   0.554 -0.5263 -0.7552 -1.4245
 1325ESO    H1a22896   4.890   6.174   0.590  2.2472 -1.1552  0.8982
 1325ESO    C2a22897   5.088   6.200   0.498 -0.1613  0.3958  0.9204
 1325ESO    H2a22898   5.124   6.259   0.419 -2.7540 -1.2333  2.0230
 1325ESO    H2a22899   5.103   6.097   0.476 -0.1827  1.5419 -2.9911
 1325ESO    H2a22900   5.154   6.219   0.590  0.2305 -0.1135  1.3872
 1326ESO     O122901   4.526   2.785   5.041  0.2749 -0.1638  0.0862
 1326ESO     O122902   4.316   2.712   5.133  0.1849 -0.0349  0.0464
 1326ESO     O122903   4.313   2.839   4.934 -0.5833  0.1569  0.0539
 1326ESO      S22904   4.391   2.747   5.010  0.1218  0.0374 -0.1526
 1326ESO     O222905   4.394   2.616   4.931 -0.5052 -0.1177  0.2471
 1326ESO    C1a22906   4.487   2.614   4.825  0.7765  0.0139  0.3674
 1326ESO    H1a22907   4.482   2.708   4.760 -1.5860  1.3453  0.5324
 1326ESO    H1a22908   4.586   2.622   4.863 -1.0620  1.6288  1.1126
 1326ESO    C2a22909   4.467   2.481   4.758  0.1457  0.1715  1.1870
 1326ESO    H2a22910   4.528   2.464   4.665  0.5366 -0.5219 -1.0275
 1326ESO    H2a22911   4.367   2.484   4.724  1.8472  0.9798 -1.8819
 1326ESO    H2a22912   4.493   2.397   4.821  0.5057 -1.1580 -1.5811
 1327ESO     O122913   2.630   2.127   4.482  0.2296 -0.1347 -0.3395
 1327ESO     O122914   2.544   2.299   4.343  0.3381  0.3305  0.4469
 1327ESO     O122915   2.462   2.268   4.559 -0.3768  0.1560 -0.1315
 1327ESO      S22916   2.580   2.262   4.479 -0.4932 -0.2872 -0.4564
 1327ESO     O222917   2.693   2.370   4.511 -0.0851 -0.0451 -0.4636
 1327ESO    C1a22918   2.771   2.326   4.632 -0.2398  0.6597  0.9184
 1327ESO    H1a22919   2.762   2.404   4.713  1.0637  3.0969 -2.2151
 1327ESO    H1a22920   2.729   2.228   4.675 -1.5578 -0.1210  0.4229
 1327ESO    C2a22921   2.919   2.310   4.589 -1.0049  1.0210 -0.8860
 1327ESO    H2a22922   2.926   2.253   4.498 -0.6364 -1.8729  0.0855
 1327ESO    H2a22923   2.964   2.249   4.669  1.5020 -2.4619 -0.5457
 1327ESO    H2a22924   2.984   2.396   4.584  0.6260  1.0214 -0.9673
 1328ESO     O122925   1.290   0.361   3.993  0.1705  0.2532  0.0652
 1328ESO     O122926   1.249   0.579   3.902 -0.1754  0.2385 -0.4171
 1328ESO     O122927   1.265   0.396   3.755 -0.0953  0.4678 -0.6237
 1328ESO      S22928   1.224   0.436   3.888 -0.3674  0.2382  0.3944
 1328ESO     O222929   1.067   0.396   3.900  0.3070  0.1645  0.4680
 1328ESO    C1a22930   0.965   0.444   3.812  0.0547 -0.0161  0.1354
 1328ESO    H1a22931   1.010   0.468   3.710  0.7436  1.5013  0.8341
 1328ESO    H1a22932   0.893   0.369   3.794  1.4872  0.9024 -1.7737
 1328ESO    C2a22933   0.896   0.565   3.868  0.4134 -0.3487 -0.1195
 1328ESO    H2a22934   0.961   0.647   3.892 -1.0480 -2.6491 -0.4607
 1328ESO    H2a22935   0.829   0.537   3.953  1.0300 -0.9505  1.9438
 1328ESO    H2a22936   0.834   0.607   3.792  3.2205  2.2587  1.2572
 1329ESO     O122937   4.861   3.468   0.703 -0.2980  0.1425  0.5154
 1329ESO     O122938   5.074   3.397   0.785  0.0446  0.2039 -0.4495
 1329ESO     O122939   4.970   3.599   0.871 -0.8185  0.1620  0.1128
 1329ESO      S22940   4.953   3.467   0.813  0.4289 -0.2516  0.4801
 1329ESO     O222941   4.875   3.381   0.915 -0.0313 -0.5356 -0.4064
 1329ESO    C1a22942   4.925   3.384   1.054 -0.1300 -1.2469  0.1926
 1329ESO    H1a22943   5.021   3.336   1.061 -3.3751  1.2394 -1.1429
 1329ESO    H1a22944   4.915   3.490   1.087  0.5182 -0.5825  0.7516
 1329ESO    C2a22945   4.837   3.297   1.133  0.4622 -0.2849  0.1430
 1329ESO    H2a22946   4.848   3.195   1.099 -1.9220 -1.3331  1.3219
 1329ESO    H2a22947   4.739   3.332   1.112  1.7618  2.5341 -1.7617
 1329ESO    H2a22948   4.858   3.292   1.237 -1.2269  0.4480 -0.5854
 1330ESO     O122949   3.500   0.652   4.137 -0.5881  0.7707 -0.1710
 1330ESO     O122950   3.576   0.829   4.277  0.8834  0.0646  0.6737
 1330ESO     O122951   3.700   0.621   4.261  0.1108 -0.7979 -0.2689
 1330ESO      S22952   3.614   0.714   4.193  0.1286  0.0479 -0.3815
 1330ESO     O222953   3.700   0.777   4.082 -0.2753  0.2576 -0.0011
 1330ESO    C1a22954   3.762   0.687   3.985  0.2704 -0.8929 -0.1072
 1330ESO    H1a22955   3.870   0.666   4.003 -0.5037 -0.6965 -1.7341
 1330ESO    H1a22956   3.708   0.589   3.980  0.8980  1.6540 -2.0583
 1330ESO    C2a22957   3.753   0.755   3.849 -0.2450 -0.0925 -0.4243
 1330ESO    H2a22958   3.763   0.682   3.766 -0.3502  0.2137 -3.6475
 1330ESO    H2a22959   3.830   0.835   3.838  2.1086 -1.4071  0.6411
 1330ESO    H2a22960   3.656   0.802   3.830 -2.8844  1.1585 -1.7466
 1331ESO     O122961   5.984   1.795   0.401 -0.2035 -0.4849 -0.9897
 1331ESO     O122962   6.118   1.597   0.413  0.0733 -1.0049  0.5712
 1331ESO     O122963   6.020   1.695   0.615  0.8809  0.2271  0.0646
 1331ESO      S22964   6.010   1.671   0.472  0.0436  0.4129 -0.0300
 1331ESO     O222965   5.883   1.578   0.443  0.3043  0.2057 -0.1066
 1331ESO    C1a22966   5.881   1.447   0.512 -0.2931 -0.0163 -0.5206
 1331ESO    H1a22967   5.937   1.371   0.464 -1.4730  1.8341 -0.0989
 1331ESO    H1a22968   5.928   1.469   0.606 -1.2790  1.5905 -0.5039
 1331ESO    C2a22969   5.740   1.417   0.538  0.4547 -0.0931  0.4206
 1331ESO    H2a22970   5.670   1.420   0.454 -0.4952 -2.7702 -0.7294
 1331ESO    H2a22971   5.697   1.495   0.599  1.3014 -1.3164 -2.4169
 1331ESO    H2a22972   5.726   1.329   0.594 -1.0475 -0.3540 -2.3370
 1332ESO     O122973   3.006   0.835   0.842  0.0123  0.1758  0.2598
 1332ESO     O122974   3.134   0.675   0.961  0.1321  0.0208  0.0474
 1332ESO     O122975   2.980   0.814   1.085 -0.1275 -0.6764 -0.3362
 1332ESO      S22976   3.013   0.752   0.961 -0.2114  0.5440  0.0031
 1332ESO     O222977   2.905   0.634   0.945  0.2020  0.2865  0.0460
 1332ESO    C1a22978   2.770   0.685   0.928 -0.2700 -0.0034  0.3924
 1332ESO    H1a22979   2.724   0.660   1.030  1.8759 -0.7201  1.1656
 1332ESO    H1a22980   2.768   0.796   0.916 -1.0218  2.2262  0.1568
 1332ESO    C2a22981   2.698   0.616   0.811 -0.5043 -0.0742  0.3122
 1332ESO    H2a22982   2.591   0.642   0.814  0.3282  0.4147 -0.5987
 1332ESO    H2a22983   2.709   0.504   0.822 -1.3738  0.3865 -1.7259
 1332ESO    H2a22984   2.737   0.641   0.709  0.2982 -1.5083 -2.2685
 1333ESO     O122985   5.050   1.140   1.306  0.0473  0.1759  0.0003
 1333ESO     O122986   5.096   1.026   1.503 -0.7985 -0.3855  0.1925
 1333ESO     O122987   5.239   1.196   1.430 -0.0394  0.2667  0.1474
 1333ESO      S22988   5.103   1.148   1.434  0.4019 -0.1539 -0.0864
 1333ESO     O222989   5.026   1.268   1.511  0.1045  0.3936  0.0822
 1333ESO    C1a22990   4.880   1.272   1.523 -0.0053 -0.7836  1.0962
 1333ESO    H1a22991   4.831   1.304   1.430 -1.7730  2.6322  0.6789
 1333ESO    H1a22992   4.841   1.174   1.543  0.6595  1.0677  0.1839
 1333ESO    C2a22993   4.855   1.366   1.636  0.7665  0.2781  0.5808
 1333ESO    H2a22994   4.749   1.356   1.668 -1.5206 -1.1555  2.6532
 1333ESO    H2a22995   4.866   1.467   1.594  0.2042 -0.5309  2.1076
 1333ESO    H2a22996   4.928   1.367   1.712 -0.1695  1.2168 -3.7085
 1334ESO     O122997   1.407   0.469   1.541 -0.7392 -0.0775  0.5552
 1334ESO     O122998   1.419   0.284   1.397  0.5843 -0.0846 -0.1433
 1334ESO     O122999   1.437   0.259   1.636 -0.7135  0.2107  0.1043
 1334ESO      S23000   1.381   0.334   1.526 -0.2213 -0.3395  0.1767
 1334ESO     O223001   1.222   0.311   1.538 -0.3185  0.0250  0.1180
 1334ESO    C1a23002   1.145   0.198   1.493  0.1654  0.2419  0.3599
 1334ESO    H1a23003   1.060   0.237   1.435 -1.5080  1.9883  0.8188
 1334ESO    H1a23004   1.198   0.133   1.428 -0.8915 -1.7983 -0.7342
 1334ESO    C2a23005   1.095   0.132   1.617  0.8753  0.3770 -0.7499
 1334ESO    H2a23006   1.087   0.200   1.707  0.3644  1.7457  0.4418
 1334ESO    H2a23007   1.161   0.062   1.644 -0.7457  1.0727 -0.0039
 1334ESO    H2a23008   1.002   0.081   1.604  0.4824  1.8620  3.4791
 1335ESO     O123009   4.683   2.552   4.343  0.4728  0.1242 -0.7792
 1335ESO     O123010   4.586   2.774   4.317  0.2243  0.0871 -0.2168
 1335ESO     O123011   4.454   2.588   4.394 -0.0895  0.2898 -0.2132
 1335ESO      S23012   4.585   2.646   4.388 -0.0644 -0.1710 -0.2624
 1335ESO     O223013   4.614   2.682   4.544  0.4828 -0.1076 -0.1161
 1335ESO    C1a23014   4.746   2.738   4.570 -0.2939  0.5888  0.1677
 1335ESO    H1a23015   4.824   2.670   4.542  1.0362  1.9179 -1.1994
 1335ESO    H1a23016   4.754   2.832   4.509  0.3461  0.1299  1.3992
 1335ESO    C2a23017   4.763   2.767   4.720  0.0654 -0.5010 -0.7980
 1335ESO    H2a23018   4.864   2.806   4.731 -1.4474 -1.5474 -0.8914
 1335ESO    H2a23019   4.755   2.682   4.789  0.3502  1.8119 -1.3905
 1335ESO    H2a23020   4.698   2.848   4.741  0.6728 -3.3550  0.2272
 1336ESO     O123021   3.719   6.077   6.722  0.1037 -0.0399  0.3849
 1336ESO     O123022   3.609   6.078   6.508  0.2660  0.0758  0.4433
 1336ESO     O123023   3.766   6.245   6.564  0.2698  0.2647  0.5289
 1336ESO      S23024   3.726   6.111   6.586  0.1821 -0.0555 -0.7314
 1336ESO     O223025   3.843   6.018   6.533  0.2356  0.2078  0.3880
 1336ESO    C1a23026   3.983   6.041   6.559 -0.1016  0.2873 -0.2941
 1336ESO    H1a23027   4.019   6.118   6.487  1.6978  0.0723 -3.6927
 1336ESO    H1a23028   3.998   6.079   6.659  2.1849 -2.1506 -0.0502
 1336ESO    C2a23029   4.062   5.909   6.539  0.0776  0.1426  0.6617
 1336ESO    H2a23030   4.052   5.834   6.621 -1.1659  0.0799  0.9352
 1336ESO    H2a23031   4.168   5.922   6.545 -2.1772 -2.0900 -0.0350
 1336ESO    H2a23032   4.036   5.854   6.450  0.5377  1.3767  1.0151
 1337ESO     O123033   0.423   1.619   5.514 -0.3024 -0.4215 -0.3841
 1337ESO     O123034   0.516   1.648   5.298 -0.3502 -0.0226  0.0150
 1337ESO     O123035   0.378   1.824   5.391 -0.2338 -0.2941 -0.1002
 1337ESO      S23036   0.469   1.714   5.419 -0.0803  0.2732  0.3448
 1337ESO     O223037   0.588   1.781   5.485 -0.5719  0.5474 -0.2103
 1337ESO    C1a23038   0.668   1.876   5.405 -0.3098 -0.1121  0.3883
 1337ESO    H1a23039   0.625   1.891   5.312 -1.8356 -1.8878  2.4805
 1337ESO    H1a23040   0.677   1.967   5.467 -1.2731 -3.1806 -0.9200
 1337ESO    C2a23041   0.803   1.802   5.400 -0.3343 -0.4337  0.2369
 1337ESO    H2a23042   0.795   1.743   5.303 -1.3429 -0.8241 -1.4346
 1337ESO    H2a23043   0.812   1.734   5.485  1.4210  0.9275 -0.9041
 1337ESO    H2a23044   0.881   1.874   5.397 -3.7284 -1.0025  1.7133
 1338ESO     O123045   3.449   1.656   3.896  0.0348 -0.3460  0.0686
 1338ESO     O123046   3.646   1.734   3.781  0.1109 -0.0163 -0.7143
 1338ESO     O123047   3.646   1.529   3.892 -0.1568 -0.1499  0.2481
 1338ESO      S23048   3.568   1.621   3.823  0.1209  0.3009  0.5987
 1338ESO     O223049   3.518   1.552   3.696 -1.0149  0.2515  0.4024
 1338ESO    C1a23050   3.614   1.483   3.610  0.1832  0.1158  0.2544
 1338ESO    H1a23051   3.640   1.554   3.532  1.5027 -0.3226  0.5170
 1338ESO    H1a23052   3.705   1.461   3.670 -1.4422 -1.0953  0.0231
 1338ESO    C2a23053   3.555   1.358   3.547 -0.4611  0.1577  0.1935
 1338ESO    H2a23054   3.527   1.367   3.438  0.5788  1.2300  0.4387
 1338ESO    H2a23055   3.467   1.321   3.611 -2.0860  0.9044 -1.1199
 1338ESO    H2a23056   3.631   1.282   3.539  0.2974  1.2703 -1.6387
 1339ESO     O123057   6.438   0.661   6.706 -0.1413  0.1562 -0.3723
 1339ESO     O123058   6.627   0.574   6.592  0.3512  0.2522 -0.3634
 1339ESO     O123059   6.632   0.610   6.834 -0.2012 -0.1713 -0.1475
 1339ESO      S23060   6.555   0.580   6.720 -0.1081 -0.2025  0.1915
 1339ESO     O223061   6.504   0.435   6.744 -0.2278  0.3391  0.4714
 1339ESO    C1a23062   6.434   0.354   6.651 -0.0374 -0.5230  0.1360
 1339ESO    H1a23063   6.328   0.379   6.652  1.3902  0.7119 -2.6199
 1339ESO    H1a23064   6.470   0.371   6.548 -0.4150  0.9090  1.1578
 1339ESO    C2a23065   6.451   0.208   6.686 -0.8238 -0.9500 -0.0154
 1339ESO    H2a23066   6.556   0.190   6.716  0.2368 -0.0830 -0.2826
 1339ESO    H2a23067   6.435   0.147   6.601  0.4392 -0.8215 -1.3041
 1339ESO    H2a23068   6.383   0.178   6.771 -0.7004  3.0092 -1.2678
 1340ESO     O123069   0.651   1.773   3.809  0.2719  0.1519  0.2851
 1340ESO     O123070   0.584   1.877   3.615 -0.1509 -0.5783  0.2205
 1340ESO     O123071   0.771   1.967   3.727  0.1672  0.1856 -0.4540
 1340ESO      S23072   0.694   1.851   3.699 -0.2684 -0.2122  0.0229
 1340ESO     O223073   0.792   1.753   3.615  0.6556  0.3101  0.3824
 1340ESO    C1a23074   0.939   1.745   3.636 -0.2029 -0.3636  0.3830
 1340ESO    H1a23075   0.990   1.783   3.545 -0.6344 -0.2154 -1.4955
 1340ESO    H1a23076   0.967   1.806   3.723 -0.6492 -0.9158 -0.5416
 1340ESO    C2a23077   0.978   1.602   3.659  0.4868 -0.2396  0.0961
 1340ESO    H2a23078   1.079   1.603   3.697 -2.4190  1.5373  0.8774
 1340ESO    H2a23079   0.978   1.548   3.565 -1.1701  2.5463 -2.9032
 1340ESO    H2a23080   0.914   1.566   3.745 -0.1422 -2.1499  2.0203
 1341ESO     O123081   5.725   6.489   3.730  0.5962 -0.1549  0.5052
 1341ESO     O123082   5.949   6.413   3.766  0.1047  0.7846 -0.5875
 1341ESO     O123083   5.917   6.613   3.641 -0.3008  0.2185 -0.1235
 1341ESO      S23084   5.865   6.525   3.742  0.0711  0.1363  0.0863
 1341ESO     O223085   5.870   6.608   3.875  0.3811  1.0404 -0.1742
 1341ESO    C1a23086   5.992   6.681   3.905 -0.0296 -0.0413  0.0155
 1341ESO    H1a23087   6.073   6.609   3.886 -3.1401  1.9109  0.3863
 1341ESO    H1a23088   5.998   6.766   3.838 -2.1184  0.3069  1.8252
 1341ESO    C2a23089   5.979   6.718   4.050  0.4791 -0.2977  0.4794
 1341ESO    H2a23090   5.991   6.631   4.111 -1.4687 -1.6565 -0.9217
 1341ESO    H2a23091   5.884   6.767   4.079 -1.4640  0.2155 -0.1530
 1341ESO    H2a23092   6.062   6.792   4.081  1.9237 -0.0127 -1.8458
 1342ESO     O123093   0.148   6.081   1.743  0.0121 -0.4133 -0.0494
 1342ESO     O123094   0.107   6.284   1.865 -0.2579  0.7116  0.1998
 1342ESO     O123095   0.292   6.275   1.713 -0.1117 -0.1387  0.6515
 1342ESO      S23096   0.158   6.227   1.742  0.1697 -0.0056  0.1295
 1342ESO     O223097   0.059   6.274   1.620  0.2676 -0.0463  0.0895
 1342ESO    C1a23098  -0.088   6.264   1.637 -0.3165 -0.0823 -0.2856
 1342ESO    H1a23099  -0.138   6.177   1.592  1.9708 -0.7688  1.3490
 1342ESO    H1a23100  -0.103   6.250   1.744 -2.7806 -1.4154  0.2821
 1342ESO    C2a23101  -0.152   6.397   1.593 -0.0554 -0.2518 -0.6082
 1342ESO    H2a23102  -0.119   6.486   1.646 -0.8733  1.1295  0.8032
 1342ESO    H2a23103  -0.257   6.381   1.619 -0.4010 -0.1055 -1.7276
 1342ESO    H2a23104  -0.160   6.413   1.481 -0.3303 -2.7325 -2.3528
 1343ESO     O123105   5.025   2.207   6.385  0.0348 -0.1594 -0.7676
 1343ESO     O123106   5.086   1.994   6.290  0.0480  0.2757 -0.4885
 1343ESO     O123107   4.935   2.006   6.467  0.2788 -0.2269  0.4595
 1343ESO      S23108   4.985   2.071   6.357  0.1176 -0.0201  0.9060
 1343ESO     O223109   4.860   2.081   6.263 -0.6428  0.2290 -0.7973
 1343ESO    C1a23110   4.859   2.166   6.147 -0.2077  0.5425 -0.0526
 1343ESO    H1a23111   4.875   2.271   6.184 -1.0890  0.4747  0.7934
 1343ESO    H1a23112   4.940   2.142   6.087 -0.5136 -3.5705  2.4799
 1343ESO    C2a23113   4.729   2.147   6.079 -0.7794  0.1515 -1.1639
 1343ESO    H2a23114   4.660   2.179   6.156 -0.9144  0.2038  3.0244
 1343ESO    H2a23115   4.699   2.045   6.048 -4.0292 -1.5592  0.5917
 1343ESO    H2a23116   4.716   2.218   5.996  0.8223 -1.4641  0.0516
 1344ESO     O123117   1.894   1.351   2.338  0.3895 -1.0553  0.4316
 1344ESO     O123118   1.873   1.475   2.129  0.5937  0.2225  0.1364
 1344ESO     O123119   1.806   1.247   2.157  0.0223  0.6778  0.1275
 1344ESO      S23120   1.822   1.375   2.216  0.0708 -0.2244  0.2399
 1344ESO     O223121   1.681   1.419   2.254  0.4080 -0.1005 -0.3606
 1344ESO    C1a23122   1.577   1.384   2.155  0.3246 -0.3057  0.2156
 1344ESO    H1a23123   1.601   1.438   2.070 -1.0037 -1.6965  0.3040
 1344ESO    H1a23124   1.580   1.278   2.135  2.1695  1.3512  1.2777
 1344ESO    C2a23125   1.437   1.410   2.200  0.1312  0.5278  0.6521
 1344ESO    H2a23126   1.366   1.377   2.127  1.7107 -1.3025  4.4532
 1344ESO    H2a23127   1.425   1.510   2.230 -1.6522  0.2656 -0.3265
 1344ESO    H2a23128   1.417   1.351   2.292 -2.1319 -0.3420  1.2444
 1345ESO     O123129   3.420   3.756   5.959  0.1002 -0.6880  0.2669
 1345ESO     O123130   3.541   3.923   5.847 -0.8100  0.4079 -0.2308
 1345ESO     O123131   3.318   3.965   5.909  0.3145 -0.8800  0.3260
 1345ESO      S23132   3.441   3.897   5.939 -0.4545 -0.1001  0.1128
 1345ESO     O223133   3.485   3.957   6.082  0.1329  0.1854 -0.3773
 1345ESO    C1a23134   3.512   4.095   6.103  0.1554 -0.5157  0.0548
 1345ESO    H1a23135   3.578   4.118   6.017  1.2078 -0.4209  0.1922
 1345ESO    H1a23136   3.423   4.148   6.090 -0.9539  0.2410  0.8418
 1345ESO    C2a23137   3.579   4.118   6.238 -0.1918 -0.3626  0.8092
 1345ESO    H2a23138   3.527   4.061   6.319  0.0191  1.9299  2.3747
 1345ESO    H2a23139   3.575   4.225   6.260 -1.8624  0.4995 -0.3866
 1345ESO    H2a23140   3.684   4.089   6.239  0.9104  0.2720  0.3113
 1346ESO     O123141   4.621   1.979   5.756 -0.1489  0.5028  0.1365
 1346ESO     O123142   4.734   1.849   5.594 -0.4569 -0.3848  0.2525
 1346ESO     O123143   4.599   1.744   5.750 -0.2131 -0.0456  0.1006
 1346ESO      S23144   4.615   1.861   5.674 -0.0693  0.8809  0.0091
 1346ESO     O223145   4.490   1.867   5.578 -0.1335  0.8789  0.2288
 1346ESO    C1a23146   4.471   1.767   5.468  0.0625 -0.0484 -0.1624
 1346ESO    H1a23147   4.487   1.819   5.383  1.8699  1.1489 -0.6620
 1346ESO    H1a23148   4.543   1.692   5.471 -1.3715  1.6672 -1.3021
 1346ESO    C2a23149   4.335   1.701   5.472 -0.4360  0.2391  0.5548
 1346ESO    H2a23150   4.309   1.616   5.403 -1.8824  1.0894 -0.7169
 1346ESO    H2a23151   4.253   1.770   5.450  3.8221  0.1818  0.9697
 1346ESO    H2a23152   4.308   1.666   5.572 -0.9271  1.2581  2.0395
 1347ESO     O123153   4.616   1.856   2.348  0.3569 -0.0406  0.1177
 1347ESO     O123154   4.605   1.986   2.143  0.4301 -0.2170  0.1321
 1347ESO     O123155   4.751   1.796   2.161  0.2154  0.9312  0.1941
 1347ESO      S23156   4.630   1.856   2.207 -0.4432 -0.3863 -0.0406
 1347ESO     O223157   4.514   1.767   2.144  0.0981  0.0707  0.2604
 1347ESO    C1a23158   4.379   1.803   2.173  0.6019 -0.6233 -0.2997
 1347ESO    H1a23159   4.373   1.894   2.237 -0.9444  1.1096 -0.7850
 1347ESO    H1a23160   4.329   1.825   2.076  2.7286  0.7959  2.1497
 1347ESO    C2a23161   4.307   1.698   2.251 -1.1017  0.0780 -0.3382
 1347ESO    H2a23162   4.302   1.605   2.193  1.0808  2.2717 -1.5273
 1347ESO    H2a23163   4.202   1.730   2.275 -2.2536  1.4788 -0.2197
 1347ESO    H2a23164   4.359   1.664   2.340  0.7168  0.5082  2.3026
 1348ESO     O123165   4.347   1.537   3.765  0.1017 -0.3386  0.4503
 1348ESO     O123166   4.577   1.506   3.813 -0.4100  0.1064 -0.1861
 1348ESO     O123167   4.426   1.563   3.988  0.4808 -0.0633 -0.1490
 1348ESO      S23168   4.441   1.494   3.862  0.1869 -0.3253  0.1371
 1348ESO     O223169   4.408   1.339   3.871 -0.2202  0.4409  0.3595
 1348ESO    C1a23170   4.475   1.265   3.982 -0.1286  0.2884 -0.1817
 1348ESO    H1a23171   4.568   1.232   3.948 -2.4868  0.3020 -1.8795
 1348ESO    H1a23172   4.479   1.325   4.070  0.7462 -1.4013 -1.1910
 1348ESO    C2a23173   4.394   1.146   4.020  0.0288  0.5844  0.0892
 1348ESO    H2a23174   4.424   1.081   4.109  0.6014 -0.0280  4.6956
 1348ESO    H2a23175   4.373   1.074   3.940 -0.7208 -2.2951 -0.9436
 1348ESO    H2a23176   4.291   1.187   4.052 -1.6852 -0.4926 -1.6699
 1349ESO     O123177   3.006   0.175   4.590  0.4401 -0.5843  0.7614
 1349ESO     O123178   3.193   0.021   4.592  0.2363  0.2015  0.7381
 1349ESO     O123179   3.235   0.258   4.621 -0.0632  0.1896  0.5941
 1349ESO      S23180   3.139   0.147   4.640  0.4109 -0.0956  0.1689
 1349ESO     O223181   3.124   0.116   4.788 -0.2313 -0.4595 -0.9136
 1349ESO    C1a23182   3.041   0.014   4.842 -0.4387  0.0986  0.2295
 1349ESO    H1a23183   2.947   0.005   4.781  0.1604  1.0779 -0.1927
 1349ESO    H1a23184   3.098  -0.075   4.835 -1.2867  1.7281  0.1669
 1349ESO    C2a23185   3.003   0.057   4.981  0.0324  0.5759 -0.2720
 1349ESO    H2a23186   2.944   0.141   4.985  1.3905 -1.4051  1.6840
 1349ESO    H2a23187   3.091   0.082   5.037  0.5921  1.8064  1.0005
 1349ESO    H2a23188   2.952  -0.023   5.027 -1.5295  0.5986 -3.2106
 1350ESO     O123189   2.798   5.694   0.251  0.2662  0.4909  0.2003
 1350ESO     O123190   2.925   5.885   0.259  0.3652  0.2422 -0.0860
 1350ESO     O123191   2.692   5.907   0.212  0.6432 -0.1614 -0.2768
 1350ESO      S23192   2.791   5.834   0.277 -0.2938  0.6511  0.4984
 1350ESO     O223193   2.766   5.847   0.433 -0.4074  0.1844 -0.1798
 1350ESO    C1a23194   2.637   5.829   0.496 -0.8651 -0.9060  0.6098
 1350ESO    H1a23195   2.583   5.922   0.506 -0.8791  0.2256  2.1097
 1350ESO    H1a23196   2.574   5.758   0.433 -0.3023 -0.7568  0.7827
 1350ESO    C2a23197   2.661   5.780   0.641 -0.0300  0.0540 -0.3794
 1350ESO    H2a23198   2.744   5.710   0.638 -2.4868 -0.5376 -0.9257
 1350ESO    H2a23199   2.586   5.717   0.685  1.4017 -0.9182  0.1945
 1350ESO    H2a23200   2.685   5.861   0.705 -1.8328 -1.2094  0.8158
 1351ESO     O123201   6.592   4.931   0.318  0.2230  1.5098 -0.4841
 1351ESO     O123202   6.583   4.801   0.523  0.4727  0.0942  0.2147
 1351ESO     O123203   6.484   5.023   0.512 -0.6897 -0.5354  0.3013
 1351ESO      S23204   6.522   4.904   0.440  0.1510  0.0380 -0.0428
 1351ESO     O223205   6.386   4.836   0.398  0.4336 -0.0898  0.4105
 1351ESO    C1a23206   6.278   4.921   0.348 -0.8678 -0.1290 -0.0469
 1351ESO    H1a23207   6.260   5.012   0.409  2.3966 -2.1732 -0.3209
 1351ESO    H1a23208   6.302   4.950   0.251 -0.3194  0.9831  4.7331
 1351ESO    C2a23209   6.153   4.840   0.335  0.4764  0.1865 -0.3804
 1351ESO    H2a23210   6.168   4.751   0.279 -1.0807  0.8679  1.1763
 1351ESO    H2a23211   6.087   4.908   0.284 -0.0758  1.0221  3.1822
 1351ESO    H2a23212   6.115   4.817   0.431  0.6294 -1.0917 -0.9552
 1352ESO     O123213   0.762   4.929   2.567  0.3657  0.0638  0.4198
 1352ESO     O123214   0.571   5.050   2.508  0.0649  0.4272 -0.1043
 1352ESO     O123215   0.568   4.919   2.713 -0.0426 -0.4990 -0.9073
 1352ESO      S23216   0.646   4.997   2.620  0.0440  0.0318 -0.0451
 1352ESO     O223217   0.701   5.123   2.698 -0.8485 -0.1529 -0.2656
 1352ESO    C1a23218   0.748   5.117   2.838 -0.4937 -0.5929 -0.1230
 1352ESO    H1a23219   0.655   5.112   2.892 -1.3535  0.9682 -1.1092
 1352ESO    H1a23220   0.820   5.040   2.858 -0.9763  1.7623  0.2083
 1352ESO    C2a23221   0.809   5.248   2.858 -0.4173 -0.1663 -1.2031
 1352ESO    H2a23222   0.819   5.270   2.961  1.0109 -0.3042  0.3495
 1352ESO    H2a23223   0.753   5.324   2.809  0.0479  0.2066  2.3816
 1352ESO    H2a23224   0.905   5.251   2.804 -0.8276  1.2830 -0.8153
 1353ESO     O123225   3.443   2.252   2.298 -0.1609 -0.2866 -0.4035
 1353ESO     O123226   3.375   2.334   2.088  0.3120 -0.2409 -0.1824
 1353ESO     O123227   3.274   2.131   2.188  0.4828  0.0913 -0.2830
 1353ESO      S23228   3.332   2.261   2.206  0.4045  0.2302  0.2343
 1353ESO     O223229   3.222   2.346   2.276  0.0493  0.8965 -0.3024
 1353ESO    C1a23230   3.084   2.327   2.228  0.1705 -0.2559  0.6053
 1353ESO    H1a23231   3.068   2.330   2.118  2.1861  0.9251 -0.2224
 1353ESO    H1a23232   3.035   2.237   2.266  0.7441 -1.3142 -0.1091
 1353ESO    C2a23233   3.011   2.435   2.293 -0.3414 -0.4345 -0.0148
 1353ESO    H2a23234   3.018   2.437   2.400 -0.9299  1.6484  2.1681
 1353ESO    H2a23235   2.911   2.433   2.262  2.3975  3.3415  0.2218
 1353ESO    H2a23236   3.059   2.531   2.263 -0.8042  1.5007  1.0684
 1354ESO     O123237   5.065   2.833   5.906 -0.3593  0.1117 -0.3776
 1354ESO     O123238   5.166   3.050   5.904 -0.3647  0.3423 -0.1495
 1354ESO     O123239   4.953   3.019   5.807  1.2266 -0.0604  0.2950
 1354ESO      S23240   5.047   2.978   5.908 -0.4423 -0.2636 -0.1133
 1354ESO     O223241   4.978   3.013   6.045  0.4732  0.9004  0.0702
 1354ESO    C1a23242   4.855   2.945   6.084 -0.3031 -0.6429  0.2744
 1354ESO    H1a23243   4.771   2.976   6.016 -1.1102 -0.2557 -0.4291
 1354ESO    H1a23244   4.863   2.841   6.083 -3.6088  1.4314 -1.6314
 1354ESO    C2a23245   4.821   2.972   6.228 -1.2580 -0.6484  0.6569
 1354ESO    H2a23246   4.728   2.927   6.248 -0.2338 -1.2608 -0.9447
 1354ESO    H2a23247   4.828   3.078   6.246  1.1023 -0.1943 -0.4606
 1354ESO    H2a23248   4.896   2.925   6.287 -4.2203 -0.6477 -2.5356
 1355ESO     O123249   3.648   4.606   4.076 -0.1154  0.0447 -0.0220
 1355ESO     O123250   3.776   4.411   4.070 -0.6872 -0.4105 -0.0559
 1355ESO     O123251   3.535   4.390   4.076 -0.3660 -0.0724  0.0204
 1355ESO      S23252   3.653   4.467   4.030  0.3320 -0.0560  0.4004
 1355ESO     O223253   3.633   4.466   3.870 -0.1722 -0.2789 -0.4580
 1355ESO    C1a23254   3.731   4.543   3.789 -0.0584  0.2687 -0.3735
 1355ESO    H1a23255   3.702   4.645   3.812 -0.1268 -1.9035  2.2168
 1355ESO    H1a23256   3.834   4.520   3.813 -0.9835 -0.4136  2.1984
 1355ESO    C2a23257   3.703   4.512   3.646  0.6160 -0.4944  0.0893
 1355ESO    H2a23258   3.776   4.440   3.607  2.8876  0.8997 -1.3939
 1355ESO    H2a23259   3.724   4.602   3.588  0.1490  0.0446 -2.3476
 1355ESO    H2a23260   3.595   4.485   3.625 -1.5721 -2.5206 -0.2501
 1356ESO     O123261   6.482   5.724   2.644 -0.7300 -0.3790 -0.5691
 1356ESO     O123262   6.524   5.912   2.505 -0.8974  0.2954 -0.3461
 1356ESO     O123263   6.526   5.690   2.421 -0.0800  0.1252 -0.1049
 1356ESO      S23264   6.472   5.781   2.515 -0.1162 -0.0541  0.4579
 1356ESO     O223265   6.313   5.788   2.481 -0.6901 -0.2323  0.1421
 1356ESO    C1a23266   6.226   5.865   2.571  0.5679  0.0309  0.5251
 1356ESO    H1a23267   6.244   5.824   2.669 -0.2702 -0.7701  1.3690
 1356ESO    H1a23268   6.251   5.973   2.575  0.4468 -0.4061  0.8156
 1356ESO    C2a23269   6.084   5.836   2.528 -0.0877 -0.0453 -0.2313
 1356ESO    H2a23270   6.059   5.879   2.432 -0.4371 -2.7661  0.6788
 1356ESO    H2a23271   6.016   5.875   2.602  0.2145 -1.8404 -0.2633
 1356ESO    H2a23272   6.060   5.731   2.500 -2.1312  3.2078 -0.0205
 1357ESO     O123273   0.810   3.288   5.558  0.1175  0.6300 -0.1139
 1357ESO     O123274   0.681   3.285   5.362  0.4363  0.0484  0.2006
 1357ESO     O123275   0.569   3.284   5.573  0.3636 -0.1716  0.4697
 1357ESO      S23276   0.685   3.332   5.499 -0.4756  0.3350  0.4532
 1357ESO     O223277   0.676   3.488   5.499  0.2877  0.0055  0.5698
 1357ESO    C1a23278   0.773   3.558   5.417 -0.3614 -1.0663 -0.1057
 1357ESO    H1a23279   0.822   3.496   5.342 -0.6940 -0.1998  0.3058
 1357ESO    H1a23280   0.733   3.638   5.357 -1.5277 -1.3057 -2.8816
 1357ESO    C2a23281   0.886   3.615   5.497  0.3918  0.3580  0.7781
 1357ESO    H2a23282   0.856   3.678   5.579 -2.4640 -3.5302  0.0534
 1357ESO    H2a23283   0.960   3.659   5.431  1.1357  3.2447  0.0107
 1357ESO    H2a23284   0.931   3.533   5.544  0.1976  1.3977  1.6643
 1358ESO     O123285   4.938   4.919   5.363  0.2372  0.0996 -0.3626
 1358ESO     O123286   4.847   5.148   5.386 -0.3612 -0.4816 -0.4608
 1358ESO     O123287   4.790   5.009   5.199  0.0965 -0.3090  0.3377
 1358ESO      S23288   4.831   5.012   5.337 -0.1652 -0.0726  0.2640
 1358ESO     O223289   4.717   4.948   5.420  0.1173  0.4399 -0.0247
 1358ESO    C1a23290   4.581   5.004   5.417  0.5753 -0.6978 -0.4984
 1358ESO    H1a23291   4.589   5.106   5.450 -0.6820  3.0113  0.1003
 1358ESO    H1a23292   4.544   5.005   5.311 -0.5928  1.1664 -0.4665
 1358ESO    C2a23293   4.491   4.926   5.512 -0.0563  0.8569 -0.1311
 1358ESO    H2a23294   4.387   4.945   5.492  0.7411  1.0958 -2.1695
 1358ESO    H2a23295   4.526   4.953   5.611 -0.8017  0.1539 -0.2254
 1358ESO    H2a23296   4.510   4.822   5.494 -2.7450 -1.3856  0.1976
 1359ESO     O123297   6.693   1.628   6.685  0.1147 -0.0544  0.2631
 1359ESO     O123298   6.781   1.746   6.877 -0.9069  0.1522  0.1801
 1359ESO     O123299   6.585   1.819   6.764  0.4824  0.2152 -0.2144
 1359ESO      S23300   6.667   1.707   6.802 -0.0469  0.0709  0.4333
 1359ESO     O223301   6.588   1.612   6.896 -0.3261 -0.3914 -0.2974
 1359ESO    C1a23302   6.476   1.528   6.856  0.3881  0.4633 -0.6215
 1359ESO    H1a23303   6.405   1.597   6.800  0.6707 -0.4586 -1.7947
 1359ESO    H1a23304   6.517   1.447   6.787 -1.5508  2.2053 -0.4473
 1359ESO    C2a23305   6.412   1.472   6.983 -0.6183  0.2873  0.3572
 1359ESO    H2a23306   6.338   1.398   6.948  1.1533  0.2616 -3.1242
 1359ESO    H2a23307   6.361   1.552   7.033  1.3615 -0.1197  1.8041
 1359ESO    H2a23308   6.491   1.424   7.044  0.6143 -0.7695  1.7176
 1360ESO     O123309   4.112   2.829   3.698  0.2241 -0.3160 -0.6028
 1360ESO     O123310   4.101   2.730   3.490  0.4860 -0.4879  0.2628
 1360ESO     O123311   3.897   2.789   3.609 -0.2917 -0.2758 -0.7454
 1360ESO      S23312   4.033   2.819   3.581 -0.2211  0.3785 -0.1950
 1360ESO     O223313   4.039   2.969   3.522 -0.3959 -0.3687  0.4113
 1360ESO    C1a23314   3.993   3.067   3.616  0.1772 -0.3014  0.2334
 1360ESO    H1a23315   3.894   3.035   3.663 -0.1286 -1.4373 -0.0603
 1360ESO    H1a23316   4.075   3.084   3.690 -2.9702 -0.7295  2.6949
 1360ESO    C2a23317   3.990   3.200   3.539 -0.5234 -0.4092 -0.1117
 1360ESO    H2a23318   4.081   3.218   3.483 -1.8047  0.8447 -0.3985
 1360ESO    H2a23319   3.983   3.283   3.609 -2.3672 -0.8161 -3.9964
 1360ESO    H2a23320   3.917   3.199   3.460 -1.7693 -0.1742 -2.9819
 1361ESO     O123321   6.290   5.255   3.158  0.1654 -0.2526 -1.0397
 1361ESO     O123322   6.411   5.065   3.226  0.0226  0.2016 -0.4842
 1361ESO     O123323   6.171   5.068   3.248 -0.4254 -0.0979 -0.4810
 1361ESO      S23324   6.287   5.117   3.173  0.4510 -0.1008 -0.2879
 1361ESO     O223325   6.269   5.054   3.037  1.0440 -0.3721 -0.2602
 1361ESO    C1a23326   6.372   5.051   2.935  0.6414  0.0164  0.3104
 1361ESO    H1a23327   6.392   5.147   2.902  0.9894 -0.2016 -0.4707
 1361ESO    H1a23328   6.459   5.000   2.982 -1.9611  0.1859  1.8225
 1361ESO    C2a23329   6.305   4.971   2.825 -0.1890 -0.3386  0.5480
 1361ESO    H2a23330   6.213   5.023   2.794 -1.0678  2.7659 -1.7715
 1361ESO    H2a23331   6.280   4.869   2.860 -3.3916 -1.4833 -4.9225
 1361ESO    H2a23332   6.382   4.958   2.747  0.6306 -0.2657 -1.6570
 1362ESO     O123333   1.195   5.208   2.736 -0.2054 -0.0605 -0.2703
 1362ESO     O123334   1.364   5.070   2.649 -0.3899 -0.0686 -0.4629
 1362ESO     O123335   1.268   5.241   2.507  0.9656 -0.0245 -0.4607
 1362ESO      S23336   1.306   5.200   2.640  0.1761 -0.0835  0.2543
 1362ESO     O223337   1.417   5.299   2.688  0.1760  0.0603  0.2087
 1362ESO    C1a23338   1.388   5.428   2.729  0.2645  0.3401 -0.2520
 1362ESO    H1a23339   1.346   5.487   2.650  0.5467 -0.1510  2.1201
 1362ESO    H1a23340   1.320   5.428   2.812  4.5647  0.9437  0.3236
 1362ESO    C2a23341   1.524   5.492   2.748  0.4596  0.2348 -0.7393
 1362ESO    H2a23342   1.580   5.474   2.662 -1.7440  1.4139  2.2811
 1362ESO    H2a23343   1.584   5.451   2.827 -1.3192  0.6976 -0.8469
 1362ESO    H2a23344   1.498   5.599   2.770 -1.2016 -0.7091  3.3228
 1363ESO     O123345   1.356   1.206   2.750 -0.0292 -0.0178  0.3240
 1363ESO     O123346   1.250   1.273   2.951 -0.0783 -0.3835 -0.0948
 1363ESO     O123347   1.379   1.074   2.944  0.7328 -0.5114  0.2165
 1363ESO      S23348   1.361   1.205   2.890  0.1764 -0.0438 -0.1563
 1363ESO     O223349   1.493   1.290   2.921  0.5274 -0.2470 -0.0902
 1363ESO    C1a23350   1.503   1.426   2.882 -0.1156  0.9268  0.1139
 1363ESO    H1a23351   1.555   1.428   2.782  0.3219  0.3268  0.7637
 1363ESO    H1a23352   1.404   1.462   2.870  0.0118  1.6856  2.3917
 1363ESO    C2a23353   1.565   1.508   2.987  0.2581 -0.1106  0.4068
 1363ESO    H2a23354   1.561   1.610   2.962 -1.0988 -0.6759  1.2987
 1363ESO    H2a23355   1.670   1.478   2.990  1.6094  0.0035  3.8634
 1363ESO    H2a23356   1.525   1.501   3.094 -0.1143  2.1543  1.6805
 1364ESO     O123357   6.490   4.543   3.546 -0.5056  0.0563 -0.5175
 1364ESO     O123358   6.459   4.782   3.566 -0.2315 -0.2085 -0.1345
 1364ESO     O123359   6.569   4.695   3.372  0.3421 -0.3562 -0.0119
 1364ESO      S23360   6.474   4.670   3.479  0.1195  0.0426 -0.1978
 1364ESO     O223361   6.336   4.653   3.405  0.1131 -0.4214  0.3101
 1364ESO    C1a23362   6.282   4.757   3.323  0.0857 -0.1470 -0.3756
 1364ESO    H1a23363   6.179   4.765   3.351 -0.4883 -2.8894 -1.5238
 1364ESO    H1a23364   6.336   4.846   3.354  0.1809 -3.1058 -1.0044
 1364ESO    C2a23365   6.310   4.727   3.173  0.8513 -0.0018 -0.1613
 1364ESO    H2a23366   6.419   4.704   3.170  1.5567 -0.2994 -0.8961
 1364ESO    H2a23367   6.298   4.819   3.113  0.0717  0.1253  1.8411
 1364ESO    H2a23368   6.261   4.634   3.141  2.3863  2.7942 -0.0449
 1365ESO     O123369   6.009   4.069   5.282  0.7554  0.1224 -0.0618
 1365ESO     O123370   5.960   3.848   5.371  0.2208  0.2712 -0.6627
 1365ESO     O123371   6.102   3.996   5.493 -0.4721  0.1590 -0.7772
 1365ESO      S23372   5.992   3.985   5.397 -0.2593  0.1612 -0.2984
 1365ESO     O223373   5.865   4.043   5.469 -0.1999 -0.2510  0.5354
 1365ESO    C1a23374   5.875   4.179   5.521 -0.0229 -0.1608  0.0618
 1365ESO    H1a23375   5.976   4.223   5.509 -1.2893 -2.0486 -2.4011
 1365ESO    H1a23376   5.807   4.242   5.472 -0.7624 -2.2577  1.8808
 1365ESO    C2a23377   5.831   4.180   5.670 -0.1461  0.1524  0.1470
 1365ESO    H2a23378   5.895   4.118   5.734 -0.0554 -3.9689  0.7015
 1365ESO    H2a23379   5.726   4.141   5.675  0.1451  0.7622 -0.9389
 1365ESO    H2a23380   5.827   4.275   5.710 -0.0869 -0.2784 -0.0734
 1366ESO     O123381   6.093   2.682   5.841  0.2702 -0.2161 -0.0294
 1366ESO     O123382   6.145   2.524   6.013 -0.3515  0.5927  0.6247
 1366ESO     O123383   6.216   2.477   5.784  0.0803 -0.2485 -0.9229
 1366ESO      S23384   6.185   2.576   5.885 -0.1840 -0.1835  0.1579
 1366ESO     O223385   6.320   2.655   5.906 -0.9695  0.6339 -0.2363
 1366ESO    C1a23386   6.430   2.588   5.978 -0.5706  0.4671  0.5813
 1366ESO    H1a23387   6.401   2.581   6.075 -1.0826 -0.8751 -2.2786
 1366ESO    H1a23388   6.444   2.482   5.944 -3.2549 -0.8155 -2.4334
 1366ESO    C2a23389   6.558   2.665   5.978 -0.2234  0.0863  1.0310
 1366ESO    H2a23390   6.623   2.623   6.056  3.2702 -2.0396 -0.9628
 1366ESO    H2a23391   6.525   2.769   6.005  3.0948  0.5683  1.8252
 1366ESO    H2a23392   6.610   2.666   5.872  0.3427 -0.5029 -0.4524
 1367ESO     O123393   2.453   1.564   3.371 -0.1071 -0.0359  0.4738
 1367ESO     O123394   2.498   1.455   3.590  0.0923 -0.4038 -0.4801
 1367ESO     O123395   2.348   1.655   3.567 -0.6892 -0.0241  0.5626
 1367ESO      S23396   2.404   1.534   3.503  0.2258  0.2006  0.3788
 1367ESO     O223397   2.283   1.440   3.480 -0.4995 -0.0665 -0.2553
 1367ESO    C1a23398   2.221   1.392   3.600 -0.1831  0.0662  0.4494
 1367ESO    H1a23399   2.287   1.342   3.668 -2.3969  0.5246 -0.4515
 1367ESO    H1a23400   2.173   1.475   3.644 -1.3780  0.9839 -0.1676
 1367ESO    C2a23401   2.112   1.304   3.550 -0.0945  0.1799 -0.1428
 1367ESO    H2a23402   2.133   1.228   3.479 -1.4041  0.7266 -1.4650
 1367ESO    H2a23403   2.027   1.356   3.512  0.3309 -2.2100  0.6905
 1367ESO    H2a23404   2.071   1.258   3.640 -2.6049  1.1552  1.0657
 1368ESO     O123405   0.785   4.600   0.411  0.1681  0.3265  0.3521
 1368ESO     O123406   0.732   4.577   0.180  0.3167  0.0925  0.2371
 1368ESO     O123407   0.920   4.695   0.236  0.2516  0.2060  0.0852
 1368ESO      S23408   0.834   4.586   0.277 -0.0821  0.1083 -0.0126
 1368ESO     O223409   0.910   4.451   0.272  0.3928  0.8031 -0.0652
 1368ESO    C1a23410   1.030   4.434   0.360  0.3093 -0.2403 -0.2811
 1368ESO    H1a23411   1.124   4.466   0.317 -0.7672 -0.4570  1.9071
 1368ESO    H1a23412   1.015   4.494   0.447 -1.5441 -3.0110  1.2377
 1368ESO    C2a23413   1.043   4.283   0.397 -0.5501 -0.3962 -0.4715
 1368ESO    H2a23414   1.072   4.224   0.308 -0.3879  0.2240 -1.4518
 1368ESO    H2a23415   0.947   4.253   0.436 -0.4360  0.6514 -0.1808
 1368ESO    H2a23416   1.115   4.272   0.474 -3.1933  3.0834  1.1126
 1369ESO     O123417   2.760   0.892   3.068 -0.0144 -0.1632  0.2650
 1369ESO     O123418   2.828   0.737   2.903  0.5205 -0.4034  0.0934
 1369ESO     O123419   2.722   0.659   3.095  0.0283 -0.2584  0.2391
 1369ESO      S23420   2.733   0.767   3.004 -0.1809  0.2376  0.1159
 1369ESO     O223421   2.597   0.797   2.924 -0.5627  0.2356 -0.1638
 1369ESO    C1a23422   2.498   0.825   3.026  0.3675 -0.3680  0.4686
 1369ESO    H1a23423   2.425   0.748   3.008 -0.6715  0.3674  1.1473
 1369ESO    H1a23424   2.530   0.825   3.125  1.7232  1.5174 -1.2517
 1369ESO    C2a23425   2.452   0.966   2.995  0.9248 -1.1916  0.0220
 1369ESO    H2a23426   2.484   1.041   3.066  0.4553  0.5816 -0.9451
 1369ESO    H2a23427   2.347   0.963   2.980  1.3182 -0.7445 -1.7428
 1369ESO    H2a23428   2.491   1.004   2.905 -1.2375 -1.0547  0.4307
 1370ESO     O123429   5.598   0.757   2.544 -0.5085 -0.3453  0.2588
 1370ESO     O123430   5.760   0.630   2.678 -0.1394 -0.5392 -0.0869
 1370ESO     O123431   5.561   0.526   2.612  0.3174  0.4752 -0.0406
 1370ESO      S23432   5.655   0.631   2.583  0.2147 -0.4790  0.3245
 1370ESO     O223433   5.737   0.571   2.459  0.0901  0.5989 -0.0025
 1370ESO    C1a23434   5.841   0.648   2.395 -0.4901 -0.1227  0.2423
 1370ESO    H1a23435   5.805   0.748   2.385  3.0125 -0.8339  1.2151
 1370ESO    H1a23436   5.930   0.664   2.452 -0.1612 -2.5549 -0.2520
 1370ESO    C2a23437   5.868   0.602   2.251 -0.0463 -0.4404  0.1668
 1370ESO    H2a23438   5.926   0.508   2.248  2.1973  0.9244  0.7200
 1370ESO    H2a23439   5.913   0.681   2.196  1.7938  2.1146  1.3732
 1370ESO    H2a23440   5.776   0.596   2.198 -1.0411 -1.1847  1.2760
 1371ESO     O123441   1.586   3.381   1.251  0.0559 -0.2959 -0.2433
 1371ESO     O123442   1.711   3.176   1.269  0.3473  0.0583 -0.2237
 1371ESO     O123443   1.786   3.367   1.392 -0.2668 -0.4166 -0.1241
 1371ESO      S23444   1.673   3.296   1.337 -0.1344 -0.0743  0.3138
 1371ESO     O223445   1.582   3.259   1.459  0.3882  0.1367 -0.2372
 1371ESO    C1a23446   1.466   3.185   1.427 -0.5329 -0.4101 -0.1285
 1371ESO    H1a23447   1.374   3.220   1.476 -1.4488  0.1629 -1.8806
 1371ESO    H1a23448   1.450   3.188   1.321 -0.4978 -0.2367 -1.8348
 1371ESO    C2a23449   1.482   3.042   1.470  0.6867  0.4279  0.3653
 1371ESO    H2a23450   1.498   3.034   1.578  0.3801 -0.9256  2.0143
 1371ESO    H2a23451   1.561   2.988   1.424  0.1670  1.2056 -0.1675
 1371ESO    H2a23452   1.390   2.991   1.453 -1.9135  1.4180 -1.0397
 1372ESO     O123453   4.235   3.147   1.887 -0.0314 -0.0791 -0.5902
 1372ESO     O123454   4.027   3.235   1.813  0.1804 -0.1908 -0.0414
 1372ESO     O123455   4.223   3.377   1.826 -0.1522  0.6227 -0.8310
 1372ESO      S23456   4.172   3.246   1.806  0.1238  0.1102  0.1569
 1372ESO     O223457   4.211   3.212   1.660  0.3948  0.2004 -0.0297
 1372ESO    C1a23458   4.146   3.284   1.551 -0.4605 -0.1243 -0.3438
 1372ESO    H1a23459   4.039   3.255   1.550 -1.3603  1.0138  2.3254
 1372ESO    H1a23460   4.154   3.388   1.563  0.0053  0.6259  0.1127
 1372ESO    C2a23461   4.223   3.235   1.427  0.5789  0.2370 -0.2192
 1372ESO    H2a23462   4.325   3.261   1.436  0.3828 -0.8478  1.7567
 1372ESO    H2a23463   4.186   3.282   1.343 -0.0410 -0.9464  0.9833
 1372ESO    H2a23464   4.233   3.123   1.417 -0.7542  1.0357  1.5541
 1373ESO     O123465   5.043   1.634   0.838 -0.0412  0.2609  0.1522
 1373ESO     O123466   4.975   1.738   0.637  0.4877 -0.5592  0.4046
 1373ESO     O123467   5.070   1.865   0.808  0.0541 -0.4970 -0.6611
 1373ESO      S23468   5.067   1.739   0.744 -0.2105  0.1418  0.0224
 1373ESO     O223469   5.211   1.719   0.685 -0.3785 -0.3001 -0.5448
 1373ESO    C1a23470   5.235   1.609   0.593  0.1530  0.3389 -0.1868
 1373ESO    H1a23471   5.161   1.535   0.613 -0.3742  2.7946  1.5138
 1373ESO    H1a23472   5.233   1.633   0.486  2.1633 -2.0474  3.2694
 1373ESO    C2a23473   5.364   1.548   0.638 -0.6798 -0.1298 -0.0770
 1373ESO    H2a23474   5.376   1.445   0.595  0.1167 -0.2380  0.0289
 1373ESO    H2a23475   5.374   1.544   0.750  1.6762 -1.0952  2.0167
 1373ESO    H2a23476   5.449   1.599   0.596 -2.2144 -0.9706 -0.2202
 1374ESO     O123477   1.449   0.237   2.104 -0.2751  0.1542 -0.0300
 1374ESO     O123478   1.660   0.130   2.036  0.1430  0.2699  0.5396
 1374ESO     O123479   1.592   0.122   2.256 -0.5661  0.8358  0.5828
 1374ESO      S23480   1.548   0.128   2.124 -0.2319  0.0085  0.0351
 1374ESO     O223481   1.453   0.002   2.103 -0.5050 -0.4202  0.3005
 1374ESO    C1a23482   1.412  -0.015   1.964  0.3912  0.6411 -0.1134
 1374ESO    H1a23483   1.398   0.079   1.915 -2.0005 -1.8336 -2.4218
 1374ESO    H1a23484   1.488  -0.068   1.903  0.4610  1.9170  1.6366
 1374ESO    C2a23485   1.283  -0.096   1.963 -0.7998  0.8466 -0.1610
 1374ESO    H2a23486   1.238  -0.075   1.871  1.0527  1.1324 -2.0444
 1374ESO    H2a23487   1.218  -0.072   2.040  2.6333 -0.5959 -0.9767
 1374ESO    H2a23488   1.307  -0.204   1.970  1.0275 -0.0000  0.4825
 1375ESO     O123489   4.213   6.666   5.197 -0.0563  0.1386  0.0326
 1375ESO     O123490   4.126   6.590   5.394  0.4276  0.3577  0.2049
 1375ESO     O123491   4.113   6.820   5.356  0.1405  0.3931  0.0315
 1375ESO      S23492   4.111   6.690   5.295 -0.1255 -0.0186 -0.1323
 1375ESO     O223493   3.970   6.682   5.226  0.3010  0.1005  0.2617
 1375ESO    C1a23494   3.938   6.571   5.137 -0.8835  0.3286 -0.3162
 1375ESO    H1a23495   3.995   6.572   5.048  3.4949  0.3897  0.6125
 1375ESO    H1a23496   3.962   6.476   5.181  3.3500  1.1905 -1.6482
 1375ESO    C2a23497   3.790   6.579   5.120  0.6839 -0.5626 -0.2617
 1375ESO    H2a23498   3.755   6.508   5.041 -1.1411  0.1174  0.9270
 1375ESO    H2a23499   3.751   6.676   5.099  0.5147 -3.2435 -0.2888
 1375ESO    H2a23500   3.749   6.537   5.212 -0.3342  1.1638  0.2761
 1376ESO     O123501   6.797   4.807   6.777 -0.1360  0.1268  0.1366
 1376ESO     O123502   6.960   4.680   6.660 -0.0706 -0.2981 -0.0973
 1376ESO     O123503   6.740   4.661   6.597 -0.4531 -0.2811  0.3489
 1376ESO      S23504   6.839   4.744   6.657 -0.0472  0.0849 -0.0004
 1376ESO     O223505   6.859   4.863   6.556  0.0622 -0.2419  0.0986
 1376ESO    C1a23506   6.751   4.950   6.518  0.7662  0.1327  0.2552
 1376ESO    H1a23507   6.737   4.935   6.413 -0.2728  0.2917 -1.1313
 1376ESO    H1a23508   6.656   4.926   6.574 -1.6484  1.7451 -1.7267
 1376ESO    C2a23509   6.807   5.086   6.548  0.7026  0.3592 -0.8746
 1376ESO    H2a23510   6.733   5.170   6.559 -1.9382  0.5862 -1.4157
 1376ESO    H2a23511   6.854   5.122   6.460 -0.1938  1.9921 -3.1185
 1376ESO    H2a23512   6.884   5.085   6.627 -0.3789  2.5039  1.0426
 1377ESO     O123513   4.012   0.557   3.830  0.4599 -0.0083 -0.1573
 1377ESO     O123514   3.861   0.372   3.886  0.0044 -0.0698 -0.1569
 1377ESO     O123515   4.048   0.332   3.751  0.1842  0.3915  0.3668
 1377ESO      S23516   3.995   0.414   3.856  0.0099  0.3915  0.0801
 1377ESO     O223517   4.079   0.385   3.974  0.3999 -0.4898 -0.3878
 1377ESO    C1a23518   4.040   0.416   4.108 -0.9426 -0.4101 -0.7267
 1377ESO    H1a23519   4.105   0.491   4.148 -0.9467 -2.2595  1.4950
 1377ESO    H1a23520   3.944   0.448   4.103  0.9273 -0.9641  0.0825
 1377ESO    C2a23521   4.050   0.293   4.209 -0.1452 -0.3790  0.1522
 1377ESO    H2a23522   4.025   0.329   4.318  0.8053  0.1586  1.3690
 1377ESO    H2a23523   4.146   0.244   4.212 -0.0502 -1.6780 -0.4334
 1377ESO    H2a23524   3.981   0.218   4.176  0.4833  0.9474 -1.0624
 1378ESO     O123525   2.305   0.803   2.068 -0.1761 -0.9153  0.4682
 1378ESO     O123526   2.390   0.974   2.220  0.2679  0.3867 -0.0499
 1378ESO     O123527   2.154   0.966   2.154 -0.2289 -0.2410 -0.4478
 1378ESO      S23528   2.275   0.892   2.175 -0.1217 -0.1513 -0.4592
 1378ESO     O223529   2.245   0.796   2.292 -0.4109 -0.6356  0.3233
 1378ESO    C1a23530   2.325   0.678   2.315 -0.2159 -0.0795  0.5174
 1378ESO    H1a23531   2.310   0.597   2.241  0.9669  0.4417 -2.0891
 1378ESO    H1a23532   2.435   0.691   2.311  1.4300 -0.3819 -0.0901
 1378ESO    C2a23533   2.277   0.633   2.449 -0.2448  0.7414 -0.1282
 1378ESO    H2a23534   2.265   0.711   2.516 -1.5692  0.6146 -1.4425
 1378ESO    H2a23535   2.345   0.557   2.490 -2.0049 -3.1076  0.5107
 1378ESO    H2a23536   2.173   0.595   2.442 -1.4590  0.1966  1.9722
 1379ESO     O123537   6.554   0.381   0.686  0.4189  0.5111 -0.4468
 1379ESO     O123538   6.588   0.459   0.460 -0.6165  0.2946 -0.5708
 1379ESO     O123539   6.674   0.591   0.648  0.2637  0.5787  0.4276
 1379ESO      S23540   6.633   0.460   0.599  0.1005 -0.2233  0.4872
 1379ESO     O223541   6.769   0.383   0.583 -0.2224  0.2464  0.4484
 1379ESO    C1a23542   6.775   0.236   0.577  0.0002 -0.0352  0.2198
 1379ESO    H1a23543   6.776   0.190   0.677  2.5126 -3.6946  0.2645
 1379ESO    H1a23544   6.699   0.194   0.507  0.2279 -0.2596 -1.5497
 1379ESO    C2a23545   6.903   0.209   0.512  0.0668  0.1317 -0.0629
 1379ESO    H2a23546   6.906   0.236   0.409 -1.0050 -1.0723 -0.9110
 1379ESO    H2a23547   6.918   0.093   0.516  0.5802 -2.6265  0.2996
 1379ESO    H2a23548   6.984   0.255   0.569 -2.9525 -1.6000  1.4472
 1380ESO     O123549   2.205   6.580   4.572 -0.3290  0.0402  0.7208
 1380ESO     O123550   2.115   6.494   4.770 -0.3040  0.1755  0.4131
 1380ESO     O123551   2.039   6.708   4.688  0.0099 -0.3222  0.0695
 1380ESO      S23552   2.088   6.580   4.659 -0.0086  0.0596  0.6420
 1380ESO     O223553   1.985   6.508   4.565  0.6722  0.3595  0.7156
 1380ESO    C1a23554   1.993   6.369   4.509  0.5134 -0.1333 -0.1955
 1380ESO    H1a23555   2.101   6.335   4.503  1.7361 -2.1488  0.3747
 1380ESO    H1a23556   1.933   6.303   4.576  2.3477  0.1510 -0.3850
 1380ESO    C2a23557   1.930   6.377   4.372  0.2084 -0.5623  0.2910
 1380ESO    H2a23558   1.961   6.464   4.315 -2.8143  1.5925  0.2806
 1380ESO    H2a23559   1.822   6.376   4.379  1.1341  1.7235 -0.4407
 1380ESO    H2a23560   1.957   6.293   4.314  1.1313  0.4421  1.6782
 1381ESO     O123561   0.552   1.020   3.473  0.2021  0.2900 -0.4686
 1381ESO     O123562   0.701   0.844   3.512  0.2007 -0.6715  0.1610
 1381ESO     O123563   0.763   1.059   3.589  0.2773  0.1678 -0.3316
 1381ESO      S23564   0.654   0.968   3.564 -0.3768 -0.2009 -0.5181
 1381ESO     O223565   0.585   0.929   3.698  0.5586  0.2237  0.3159
 1381ESO    C1a23566   0.671   0.875   3.799 -0.1896 -0.8001  0.1599
 1381ESO    H1a23567   0.761   0.828   3.759  0.1723  0.4627 -2.9651
 1381ESO    H1a23568   0.711   0.951   3.870  1.3020  0.3977  0.3515
 1381ESO    C2a23569   0.582   0.774   3.867  0.2477  0.6083  0.2626
 1381ESO    H2a23570   0.646   0.694   3.892 -0.1482 -3.2047 -1.6513
 1381ESO    H2a23571   0.514   0.725   3.797  2.1496 -0.4386  1.1409
 1381ESO    H2a23572   0.528   0.798   3.958 -0.7283  2.1671 -3.0929
 1382ESO     O123573   3.443   4.093   4.604 -0.1865  0.0061 -0.3590
 1382ESO     O123574   3.243   4.195   4.658  0.4777 -0.4664  0.6650
 1382ESO     O123575   3.373   4.260   4.458  0.4468 -0.3334 -0.0369
 1382ESO      S23576   3.332   4.158   4.549 -0.1321  0.2660 -0.3726
 1382ESO     O223577   3.246   4.051   4.466 -0.1496 -0.2489  0.2436
 1382ESO    C1a23578   3.309   3.963   4.372  0.1751  0.4615 -0.2881
 1382ESO    H1a23579   3.414   3.971   4.389  1.6692 -0.6273  0.1287
 1382ESO    H1a23580   3.278   3.867   4.395  1.8713  5.8278 -1.7962
 1382ESO    C2a23581   3.270   4.005   4.233 -0.1824  0.2306 -0.0673
 1382ESO    H2a23582   3.164   3.983   4.219  4.6452  0.2644  0.3662
 1382ESO    H2a23583   3.319   3.942   4.161 -0.4488  3.3345 -0.5492
 1382ESO    H2a23584   3.286   4.108   4.216 -0.3619  0.5160 -2.2876
 1383ESO     O123585   0.636   1.972   4.420 -0.3322  0.8781 -0.2177
 1383ESO     O123586   0.414   1.983   4.340 -0.3305  0.7985 -0.7808
 1383ESO     O123587   0.457   1.871   4.549 -0.0246 -0.1138  0.1637
 1383ESO      S23588   0.499   1.974   4.460 -0.4373 -0.2771  0.1311
 1383ESO     O223589   0.471   2.110   4.538  0.4197 -0.6120  0.0288
 1383ESO    C1a23590   0.537   2.139   4.665 -0.0119  0.2962  0.6380
 1383ESO    H1a23591   0.561   2.046   4.721  2.4445 -0.2509 -0.3678
 1383ESO    H1a23592   0.619   2.200   4.635  3.1560 -0.9808 -1.0180
 1383ESO    C2a23593   0.447   2.227   4.755 -0.2089 -0.0776 -0.0651
 1383ESO    H2a23594   0.490   2.255   4.851  1.4087 -0.1970 -0.0258
 1383ESO    H2a23595   0.357   2.175   4.786 -2.0209  0.2610 -0.7065
 1383ESO    H2a23596   0.413   2.318   4.711 -0.6846 -0.9526  1.7245
 1384ESO     O123597   3.037   5.014   0.037  0.0995 -0.1850 -0.4986
 1384ESO     O123598   3.236   5.095   0.129  0.3475  0.3876 -0.2926
 1384ESO     O123599   3.047   5.235   0.111  0.3315  0.9174  0.7314
 1384ESO      S23600   3.094   5.101   0.134  0.2196 -0.2096  0.5313
 1384ESO     O223601   3.040   5.036   0.271  0.0282  0.4477 -0.3566
 1384ESO    C1a23602   2.896   5.020   0.296 -0.8846  0.4103  0.6258
 1384ESO    H1a23603   2.839   5.069   0.224 -1.9104  0.3449  1.4359
 1384ESO    H1a23604   2.879   4.911   0.294  1.1113 -1.0921 -1.3516
 1384ESO    C2a23605   2.872   5.084   0.431 -0.3733 -0.7412 -0.1690
 1384ESO    H2a23606   2.946   5.080   0.508  0.3747 -0.6314 -1.6294
 1384ESO    H2a23607   2.770   5.059   0.474 -4.2307  0.8676  0.2874
 1384ESO    H2a23608   2.865   5.194   0.414  0.4334 -1.6510  3.3043
 1385ESO     O123609   5.577   6.305   5.454 -0.6084  0.8978  0.4966
 1385ESO     O123610   5.625   6.236   5.220  0.1192  0.1300 -0.6461
 1385ESO     O123611   5.598   6.464   5.280 -0.4474 -0.1400 -0.3604
 1385ESO      S23612   5.638   6.336   5.326 -0.2519  0.4236  0.2733
 1385ESO     O223613   5.798   6.350   5.341 -0.1815  1.2156  0.2768
 1385ESO    C1a23614   5.878   6.232   5.372 -0.8349 -0.1876 -0.9192
 1385ESO    H1a23615   5.821   6.150   5.405 -0.8822 -0.3909 -0.4149
 1385ESO    H1a23616   5.930   6.204   5.283 -0.4728  1.0387  1.1395
 1385ESO    C2a23617   5.987   6.269   5.473 -0.4139 -0.4809  0.5707
 1385ESO    H2a23618   6.048   6.185   5.503 -3.2953 -0.9817 -1.4287
 1385ESO    H2a23619   5.951   6.312   5.564 -1.5467  1.8514  1.0034
 1385ESO    H2a23620   6.049   6.345   5.419  0.2512 -0.1139 -0.4197
 1386ESO     O123621   0.088   4.203   0.604  0.1866 -0.3067  0.2897
 1386ESO     O123622   0.081   4.033   0.772  0.6511  0.0448  0.3786
 1386ESO     O123623  -0.092   4.197   0.768 -0.5484 -0.1931 -0.2619
 1386ESO      S23624   0.006   4.123   0.690  0.1929 -0.0187 -0.0612
 1386ESO     O223625  -0.078   4.023   0.592 -0.0255 -0.2531  0.1125
 1386ESO    C1a23626  -0.165   4.090   0.506  0.2796 -0.3672  0.2676
 1386ESO    H1a23627  -0.266   4.065   0.533 -0.9483 -0.2999  0.5181
 1386ESO    H1a23628  -0.147   4.198   0.509  1.9267  0.6622  0.1135
 1386ESO    C2a23629  -0.138   4.035   0.365 -0.2317 -0.6708  0.1402
 1386ESO    H2a23630  -0.036   4.060   0.338  0.4028 -0.7096 -1.4213
 1386ESO    H2a23631  -0.200   4.093   0.292  0.0916  1.3341 -0.2755
 1386ESO    H2a23632  -0.166   3.928   0.350 -0.7712 -1.6948 -0.7862
 1387ESO     O123633   5.912   6.073   5.912  0.2980 -0.1733  0.0656
 1387ESO     O123634   5.941   5.847   5.828  0.5256  0.7044 -0.3655
 1387ESO     O123635   5.894   6.024   5.683 -0.9298  0.2405 -0.0758
 1387ESO      S23636   5.956   5.987   5.806  0.2426 -0.0933 -0.0469
 1387ESO     O223637   6.109   6.018   5.782  0.5427  0.5512 -0.2647
 1387ESO    C1a23638   6.218   5.989   5.869  0.1800 -0.1370  0.3219
 1387ESO    H1a23639   6.179   5.994   5.965  0.6055  2.7655 -0.2280
 1387ESO    H1a23640   6.258   5.892   5.849 -0.6178  0.6595  0.5046
 1387ESO    C2a23641   6.322   6.100   5.856  0.5446 -0.2846  0.0251
 1387ESO    H2a23642   6.309   6.196   5.909 -0.2379  0.6278 -1.4148
 1387ESO    H2a23643   6.310   6.131   5.754 -2.3588 -0.6771 -2.8119
 1387ESO    H2a23644   6.419   6.062   5.867 -0.2003  2.7531  0.8138
 1388ESO     O123645   5.221   4.722   3.959 -0.0857 -0.0406 -0.3703
 1388ESO     O123646   5.011   4.853   3.970  0.1229 -0.0507 -0.2762
 1388ESO     O123647   5.193   4.894   4.119 -0.1807 -0.4643 -1.1772
 1388ESO      S23648   5.156   4.846   3.992 -0.0529 -0.2389  0.3364
 1388ESO     O223649   5.207   4.954   3.886 -0.2299 -0.1357  0.6717
 1388ESO    C1a23650   5.348   4.994   3.894 -0.5066  0.6978 -0.4177
 1388ESO    H1a23651   5.364   5.065   3.974  0.6648  1.1298 -0.7985
 1388ESO    H1a23652   5.411   4.908   3.928  1.0870  0.8672  2.3301
 1388ESO    C2a23653   5.381   5.055   3.756 -0.0155  0.4968 -0.1388
 1388ESO    H2a23654   5.324   5.151   3.737 -3.3020 -0.0498 -1.5790
 1388ESO    H2a23655   5.356   4.980   3.677 -3.8373 -0.4917  0.8119
 1388ESO    H2a23656   5.482   5.091   3.747 -1.4866 -0.0041  4.1983
 1389ESO     O123657   2.363   3.173   6.572  0.5733 -0.0918 -0.2698
 1389ESO     O123658   2.557   3.133   6.704  0.0028  0.3940  0.4079
 1389ESO     O123659   2.384   2.969   6.703 -0.0787  0.0976 -0.0200
 1389ESO      S23660   2.450   3.074   6.627 -0.1668  0.2100 -0.3018
 1389ESO     O223661   2.520   3.008   6.503  0.6051 -0.2723 -0.4527
 1389ESO    C1a23662   2.596   3.093   6.413 -0.1721  0.1591  0.0001
 1389ESO    H1a23663   2.555   3.187   6.403  3.4973 -0.8628 -2.1782
 1389ESO    H1a23664   2.700   3.101   6.456  1.3134 -2.9332  1.8328
 1389ESO    C2a23665   2.592   3.027   6.278  0.1774  0.3772  0.1355
 1389ESO    H2a23666   2.625   3.093   6.199  2.6185  0.5012  0.2871
 1389ESO    H2a23667   2.496   2.990   6.244  0.8308  0.1375  0.9443
 1389ESO    H2a23668   2.654   2.938   6.266 -0.8851  3.4971 -1.6550
 1390ESO     O123669   3.459   3.314   5.614 -0.3447 -0.2849 -0.6132
 1390ESO     O123670   3.258   3.189   5.620 -0.0556  0.1608  0.1329
 1390ESO     O123671   3.467   3.077   5.603  0.3412  0.4747  0.1456
 1390ESO      S23672   3.399   3.192   5.654 -0.3665 -0.3870  0.0653
 1390ESO     O223673   3.412   3.200   5.812  0.0564  0.1508  0.6082
 1390ESO    C1a23674   3.535   3.154   5.869  0.6735 -0.3348  0.5965
 1390ESO    H1a23675   3.544   3.042   5.858 -0.6566 -0.5843  1.3792
 1390ESO    H1a23676   3.618   3.197   5.812  1.3202 -0.2314  0.1968
 1390ESO    C2a23677   3.542   3.199   6.015  0.2287  0.1495 -0.5815
 1390ESO    H2a23678   3.529   3.308   6.028  1.8464 -0.5762 -1.0189
 1390ESO    H2a23679   3.639   3.181   6.061 -0.2455 -0.9401  3.0627
 1390ESO    H2a23680   3.470   3.141   6.072 -2.1312  0.1934 -1.5452
 1391ESO     O123681   3.483   1.012   0.485  0.6531  0.0636 -0.4137
 1391ESO     O123682   3.520   0.782   0.543  0.0269 -0.6384 -0.1572
 1391ESO     O123683   3.671   0.948   0.621  0.1685  0.9308 -0.2208
 1391ESO      S23684   3.536   0.920   0.586 -0.0422 -0.0029 -0.2462
 1391ESO     O223685   3.456   0.930   0.724 -0.1672 -0.7788  0.2795
 1391ESO    C1a23686   3.313   0.909   0.735 -0.3557  0.3769 -0.6527
 1391ESO    H1a23687   3.275   0.851   0.650 -0.4520  0.4902 -2.0333
 1391ESO    H1a23688   3.300   0.857   0.834 -1.5184 -0.0385  1.8832
 1391ESO    C2a23689   3.252   1.049   0.747  0.4757 -0.1605 -0.1844
 1391ESO    H2a23690   3.285   1.109   0.838 -3.2995 -2.2740 -0.9394
 1391ESO    H2a23691   3.141   1.042   0.741  0.9602 -0.8157  0.8127
 1391ESO    H2a23692   3.278   1.114   0.660 -0.2631  1.2664 -0.3189
 1392ESO     O123693   2.905   4.139   3.842 -0.4775  0.1844 -0.1555
 1392ESO     O123694   3.061   4.035   3.982  0.0566 -0.2672 -1.1443
 1392ESO     O123695   2.936   3.894   3.842 -0.4220 -0.1238  0.1531
 1392ESO      S23696   2.992   4.026   3.861  0.3826 -0.1783  0.0447
 1392ESO     O223697   3.108   4.045   3.752 -0.0364 -0.7258  0.2475
 1392ESO    C1a23698   3.056   4.062   3.610  0.7756  0.5488  0.3144
 1392ESO    H1a23699   2.964   4.013   3.599 -2.0029  1.0672  0.0723
 1392ESO    H1a23700   3.050   4.172   3.581 -0.4816  0.0311 -0.8870
 1392ESO    C2a23701   3.146   3.996   3.512 -0.5030 -0.1449  1.0662
 1392ESO    H2a23702   3.116   4.006   3.407 -0.8682 -1.3185  0.9552
 1392ESO    H2a23703   3.162   3.893   3.533  2.0664  2.8943 -0.7861
 1392ESO    H2a23704   3.240   4.040   3.509 -3.0341 -0.2457  0.4058
 1393ESO     O123705   5.406   0.453   5.373  0.5487  0.2502 -0.1300
 1393ESO     O123706   5.339   0.617   5.524 -0.7892  0.1522  0.7403
 1393ESO     O123707   5.413   0.409   5.613  0.4057 -0.1979  0.5112
 1393ESO      S23708   5.419   0.501   5.506  0.3480 -0.0913  0.0807
 1393ESO     O223709   5.570   0.548   5.520  0.6656  0.8007  0.4137
 1393ESO    C1a23710   5.610   0.683   5.482 -1.2214  0.4786 -0.3711
 1393ESO    H1a23711   5.642   0.682   5.381 -0.6250  2.0288 -1.0543
 1393ESO    H1a23712   5.534   0.754   5.507  3.3934  0.8689 -1.3270
 1393ESO    C2a23713   5.742   0.716   5.565 -0.2631  0.1991 -0.3665
 1393ESO    H2a23714   5.824   0.658   5.527 -0.8996  0.0099  0.0365
 1393ESO    H2a23715   5.734   0.701   5.674 -0.7595 -0.9954 -1.0742
 1393ESO    H2a23716   5.780   0.810   5.552 -2.1521  0.1441 -1.6002
 1394ESO     O123717   1.900   3.501   2.749 -0.5529  0.2826 -0.4303
 1394ESO     O123718   1.668   3.458   2.819 -0.1941 -0.6387  0.3857
 1394ESO     O123719   1.710   3.528   2.600 -0.1806 -0.2523 -0.2567
 1394ESO      S23720   1.764   3.460   2.712 -0.6767  0.2449  0.4749
 1394ESO     O223721   1.777   3.314   2.666 -0.1866  1.0234  0.0505
 1394ESO    C1a23722   1.880   3.283   2.565  0.2152  0.1390 -0.0610
 1394ESO    H1a23723   1.860   3.335   2.470 -1.1081  2.9434 -0.8056
 1394ESO    H1a23724   1.975   3.318   2.603 -1.3097 -1.2094  1.7951
 1394ESO    C2a23725   1.892   3.134   2.555  0.9735  0.7947 -0.2078
 1394ESO    H2a23726   1.952   3.109   2.465 -2.0068 -0.0327 -0.1667
 1394ESO    H2a23727   1.801   3.078   2.547  0.8607  1.2780 -0.0715
 1394ESO    H2a23728   1.947   3.102   2.641 -0.0928  2.2465 -1.8322
 1395ESO     O123729   3.133   3.465   0.729  0.1866  0.1979 -0.0822
 1395ESO     O123730   3.291   3.517   0.891  0.2201 -0.2721  0.1352
 1395ESO     O123731   3.361   3.355   0.737  0.1714  0.0336  0.1153
 1395ESO      S23732   3.275   3.472   0.758 -0.6672  0.3847  0.1067
 1395ESO     O223733   3.339   3.580   0.665 -0.1301  0.5944 -0.1620
 1395ESO    C1a23734   3.259   3.693   0.612  0.5506 -0.4712  0.0469
 1395ESO    H1a23735   3.207   3.655   0.527 -2.3647  0.0281  1.2764
 1395ESO    H1a23736   3.189   3.723   0.684 -1.1844  0.2121 -2.4875
 1395ESO    C2a23737   3.350   3.804   0.579  0.3258 -0.1869  0.7682
 1395ESO    H2a23738   3.431   3.756   0.516 -0.1754  2.5848 -2.3759
 1395ESO    H2a23739   3.390   3.844   0.673 -1.7784  3.1575  2.9861
 1395ESO    H2a23740   3.307   3.875   0.513  1.4186 -0.6609 -0.9540
 1396ESO     O123741   6.698   0.787   3.301 -0.1114  0.6109 -0.2770
 1396ESO     O123742   6.580   0.672   3.465  0.1348  0.2744  0.0687
 1396ESO     O123743   6.552   0.605   3.241  0.3862  0.7875  0.4490
 1396ESO      S23744   6.639   0.666   3.339  0.2765 -0.0985 -0.2011
 1396ESO     O223745   6.750   0.563   3.346 -0.2090  0.2769  0.0471
 1396ESO    C1a23746   6.845   0.554   3.231 -0.6890  0.0550  0.5157
 1396ESO    H1a23747   6.785   0.517   3.148 -1.5487  3.8355  2.6685
 1396ESO    H1a23748   6.894   0.653   3.205 -0.9157  1.1862 -4.5748
 1396ESO    C2a23749   6.953   0.455   3.270 -0.0789  0.2009  0.1685
 1396ESO    H2a23750   7.046   0.471   3.213  4.0132 -0.6326  0.1342
 1396ESO    H2a23751   6.914   0.354   3.257  0.9908 -1.1741  0.8252
 1396ESO    H2a23752   6.993   0.465   3.366 -0.2686 -1.2575 -1.9105
 1397ESO     O123753   6.298   1.293   5.686 -0.4147  0.2424  0.5758
 1397ESO     O123754   6.113   1.355   5.820 -0.6226 -0.4853 -0.3052
 1397ESO     O123755   6.252   1.524   5.716  0.2307  0.2251  0.2130
 1397ESO      S23756   6.198   1.392   5.710  0.2299  0.6125  0.0156
 1397ESO     O223757   6.103   1.375   5.587  0.0631 -0.4480 -0.3520
 1397ESO    C1a23758   6.150   1.386   5.454 -0.3793 -0.5662  0.8164
 1397ESO    H1a23759   6.202   1.487   5.456  0.4558 -1.6653  1.1667
 1397ESO    H1a23760   6.214   1.309   5.426  1.0090  0.7252 -2.1375
 1397ESO    C2a23761   6.025   1.380   5.362  0.2992 -0.1413  0.4328
 1397ESO    H2a23762   6.033   1.294   5.294  1.8000 -2.5724  1.3488
 1397ESO    H2a23763   6.010   1.481   5.313 -1.3278  2.8234  3.7379
 1397ESO    H2a23764   5.933   1.362   5.422 -0.5940 -1.9383 -0.2578
 1398ESO     O123765   2.407   4.026   3.196  0.0870  0.2079  0.1880
 1398ESO     O123766   2.328   3.970   2.976  0.3925 -0.0270  0.2082
 1398ESO     O123767   2.174   4.042   3.143 -0.4300 -0.2652  0.1712
 1398ESO      S23768   2.310   4.052   3.092  0.1877 -0.0233  0.0270
 1398ESO     O223769   2.321   4.207   3.054 -0.6046  0.3299 -0.1481
 1398ESO    C1a23770   2.444   4.248   2.984  0.0470 -0.1208  0.5115
 1398ESO    H1a23771   2.492   4.175   2.932 -0.5402 -0.4775  1.4570
 1398ESO    H1a23772   2.410   4.319   2.906 -2.5504  0.7065  0.7871
 1398ESO    C2a23773   2.527   4.327   3.084  0.1788 -0.2141  0.5868
 1398ESO    H2a23774   2.468   4.412   3.123  1.3697  1.8506 -1.3616
 1398ESO    H2a23775   2.609   4.374   3.031  0.0030 -2.0710  0.0910
 1398ESO    H2a23776   2.568   4.253   3.156 -1.7632  0.0134  0.9301
 1399ESO     O123777   2.890   5.497   4.594 -0.2272  0.4372 -0.2008
 1399ESO     O123778   2.694   5.485   4.713  0.5772 -0.5012 -0.0225
 1399ESO     O123779   2.885   5.352   4.773 -0.1249  0.4542 -0.4223
 1399ESO      S23780   2.838   5.478   4.720 -0.2321 -0.4081 -0.2310
 1399ESO     O223781   2.893   5.592   4.824 -0.1005  0.3444  0.1945
 1399ESO    C1a23782   2.853   5.737   4.809 -0.0944  0.0690 -0.0622
 1399ESO    H1a23783   2.873   5.764   4.707  0.5936  0.3609 -0.6668
 1399ESO    H1a23784   2.743   5.749   4.828 -1.3557  1.6571 -3.2694
 1399ESO    C2a23785   2.929   5.805   4.923 -0.1136  0.5501  0.6454
 1399ESO    H2a23786   2.907   5.760   5.017 -0.6643  1.7068 -2.2059
 1399ESO    H2a23787   2.897   5.911   4.915 -2.2567 -0.2608  0.7263
 1399ESO    H2a23788   3.038   5.806   4.907  1.9123  2.3197  0.1540
 1400ESO     O123789   4.882   4.274   6.613 -0.7700  0.4678  0.3398
 1400ESO     O123790   5.077   4.380   6.539 -0.2937  0.5624 -0.3760
 1400ESO     O123791   5.084   4.139   6.577 -0.3793  0.7474 -0.5414
 1400ESO      S23792   5.006   4.259   6.538  0.0169  0.1126  0.2665
 1400ESO     O223793   4.983   4.240   6.394  0.2865 -0.5903  0.5986
 1400ESO    C1a23794   4.875   4.152   6.342 -0.4137  0.0511 -0.3654
 1400ESO    H1a23795   4.848   4.069   6.407  0.4996 -1.1395  0.4934
 1400ESO    H1a23796   4.789   4.206   6.304  1.5328 -1.2621  3.0227
 1400ESO    C2a23797   4.933   4.068   6.231 -0.3678 -0.1521  0.2237
 1400ESO    H2a23798   4.967   4.122   6.147 -0.2518  0.0315  1.5650
 1400ESO    H2a23799   4.846   4.016   6.196 -0.6650  1.5385 -3.2668
 1400ESO    H2a23800   4.999   3.994   6.266 -0.2314 -1.5737 -2.2490
 1401ESO     O123801   1.782   2.717   1.564 -0.1594  0.0454  0.3919
 1401ESO     O123802   1.612   2.782   1.720  0.0520 -0.8296 -0.2552
 1401ESO     O123803   1.701   2.553   1.713  0.7819 -0.0481  0.7519
 1401ESO      S23804   1.725   2.695   1.694 -0.0192  0.1229 -0.4584
 1401ESO     O223805   1.835   2.732   1.800 -0.1856  0.3960 -0.5308
 1401ESO    C1a23806   1.812   2.700   1.936 -0.8241  0.3888 -0.1271
 1401ESO    H1a23807   1.699   2.720   1.953  0.5595 -2.3615  0.3394
 1401ESO    H1a23808   1.828   2.591   1.942  2.0851  2.8218  0.2364
 1401ESO    C2a23809   1.899   2.784   2.024 -0.5182 -0.3640  0.3720
 1401ESO    H2a23810   2.004   2.782   2.004  2.0350  1.8807  0.7591
 1401ESO    H2a23811   1.887   2.734   2.116 -1.0497 -1.6444 -0.6385
 1401ESO    H2a23812   1.875   2.892   2.015 -0.2771 -1.2826  1.5868
 1402ESO     O123813   2.633   4.369   0.712 -0.2734 -0.8190  0.4228
 1402ESO     O123814   2.826   4.387   0.848  0.1990 -0.2328 -0.0312
 1402ESO     O123815   2.785   4.184   0.740  0.6206 -0.2649  0.1509
 1402ESO      S23816   2.768   4.327   0.735  0.0632 -0.0287 -0.0985
 1402ESO     O223817   2.851   4.360   0.612  0.0056 -0.1370 -0.5594
 1402ESO    C1a23818   2.988   4.390   0.629 -0.3726 -0.7847 -0.1412
 1402ESO    H1a23819   3.002   4.491   0.658 -2.6235  0.2531  1.4198
 1402ESO    H1a23820   3.028   4.316   0.706  2.6494  0.2144 -1.5628
 1402ESO    C2a23821   3.043   4.363   0.491 -0.1975  0.4288 -0.6370
 1402ESO    H2a23822   3.002   4.441   0.426  0.9391 -0.0266  2.5685
 1402ESO    H2a23823   3.012   4.270   0.440 -1.0330 -1.2600  0.1064
 1402ESO    H2a23824   3.150   4.350   0.486  0.2347 -0.7388  2.2994
 1403ESO     O123825   3.150   2.570   4.849 -0.2346 -0.2766  0.2939
 1403ESO     O123826   3.212   2.643   5.073 -0.3265  0.2780  0.2222
 1403ESO     O123827   3.181   2.801   4.885 -0.5733  0.1766 -0.1169
 1403ESO      S23828   3.143   2.676   4.947  0.0591 -0.1725 -0.2268
 1403ESO     O223829   2.992   2.700   4.993  0.8146 -0.3519  0.5114
 1403ESO    C1a23830   2.918   2.579   5.034 -0.3064  0.7160  0.5034
 1403ESO    H1a23831   2.956   2.492   4.979  0.9651  2.7909 -0.4819
 1403ESO    H1a23832   2.927   2.569   5.143 -1.8273 -1.6965 -1.5517
 1403ESO    C2a23833   2.773   2.611   5.003 -0.3083 -0.0465 -0.2259
 1403ESO    H2a23834   2.754   2.596   4.896  0.7808 -0.7121 -0.8179
 1403ESO    H2a23835   2.760   2.717   5.022  0.6337  2.3531  0.3611
 1403ESO    H2a23836   2.708   2.554   5.063  1.4793  0.0388 -0.2133
 1404ESO     O123837   1.392   3.457   3.161 -0.5562  0.0303 -0.3164
 1404ESO     O123838   1.451   3.659   3.282  0.1955  0.4029 -0.5691
 1404ESO     O123839   1.221   3.624   3.231 -0.0674  0.1907  0.2190
 1404ESO      S23840   1.347   3.567   3.251  0.3282 -0.2509 -0.0928
 1404ESO     O223841   1.327   3.504   3.394  0.0896  0.2406  0.4694
 1404ESO    C1a23842   1.439   3.430   3.461  0.6111  0.1301  0.1580
 1404ESO    H1a23843   1.450   3.334   3.410  0.9864 -0.9816  3.2202
 1404ESO    H1a23844   1.529   3.495   3.457 -1.0396  0.1739  1.7628
 1404ESO    C2a23845   1.392   3.404   3.604  0.2022  0.3577  0.1348
 1404ESO    H2a23846   1.398   3.492   3.668  0.1591  0.4539  0.5129
 1404ESO    H2a23847   1.467   3.334   3.641  1.0527 -1.1025 -0.3031
 1404ESO    H2a23848   1.305   3.353   3.617  3.2252  1.3442 -0.4229
 1405ESO     O123849   5.641   1.616   2.923  0.0994 -0.5008 -0.4247
 1405ESO     O123850   5.546   1.809   3.032 -0.6784  0.0986 -0.2550
 1405ESO     O123851   5.657   1.830   2.823  0.1515 -0.0885  0.2994
 1405ESO      S23852   5.577   1.746   2.904 -0.3175 -0.0074 -0.0172
 1405ESO     O223853   5.436   1.726   2.824  0.1596  0.0032 -0.0494
 1405ESO    C1a23854   5.370   1.843   2.769 -0.0430  0.2101  0.4229
 1405ESO    H1a23855   5.440   1.921   2.759 -3.1837 -1.4740  0.2829
 1405ESO    H1a23856   5.336   1.829   2.664  3.1719  0.1108 -0.1811
 1405ESO    C2a23857   5.251   1.870   2.854 -0.4431  0.0638 -0.1243
 1405ESO    H2a23858   5.269   1.868   2.961  2.3949 -0.9842 -2.1074
 1405ESO    H2a23859   5.176   1.792   2.830 -1.4944  1.2027 -0.7584
 1405ESO    H2a23860   5.216   1.965   2.834  0.4482  0.5254 -0.9854
 1406ESO     O123861   1.935   4.241   6.239  0.3286  0.1471 -0.3831
 1406ESO     O123862   2.037   4.026   6.206 -0.4139 -0.1737  0.2229
 1406ESO     O123863   1.839   4.089   6.083 -0.0770  0.4554 -0.3185
 1406ESO      S23864   1.961   4.135   6.148  0.2622  0.5921 -0.0277
 1406ESO     O223865   2.056   4.205   6.042  0.4114  0.4522 -0.0674
 1406ESO    C1a23866   1.992   4.281   5.935  0.5398  0.9056  0.2677
 1406ESO    H1a23867   1.947   4.208   5.865 -1.4563  1.5735  2.7379
 1406ESO    H1a23868   1.913   4.333   5.983  0.0497  0.4599  2.1734
 1406ESO    C2a23869   2.089   4.367   5.868 -0.0261  0.3258 -0.2053
 1406ESO    H2a23870   2.134   4.443   5.942  1.6909  3.1311 -0.9343
 1406ESO    H2a23871   2.048   4.428   5.794 -0.3531  1.2158  2.8875
 1406ESO    H2a23872   2.166   4.309   5.820 -4.5598  2.1645  0.1207
 1407ESO     O123873   0.472   5.726   2.862 -0.5540  0.1477 -0.4969
 1407ESO     O123874   0.301   5.568   2.891 -0.3561 -0.4147  0.0743
 1407ESO     O123875   0.528   5.494   2.856  0.0942 -0.1592  0.1159
 1407ESO      S23876   0.441   5.596   2.911 -0.3802 -0.1819 -0.0913
 1407ESO     O223877   0.473   5.597   3.062  0.6203 -0.5151 -0.0411
 1407ESO    C1a23878   0.458   5.479   3.144 -0.3675  0.3973 -0.1169
 1407ESO    H1a23879   0.366   5.414   3.122 -1.3657 -2.0956 -0.1180
 1407ESO    H1a23880   0.551   5.413   3.130  2.0953 -0.0461 -0.8001
 1407ESO    C2a23881   0.447   5.521   3.285  0.2685  0.2995 -0.4386
 1407ESO    H2a23882   0.344   5.556   3.293 -2.1666 -1.9914  0.1294
 1407ESO    H2a23883   0.515   5.606   3.304  0.2204  1.1329 -0.3726
 1407ESO    H2a23884   0.462   5.443   3.363 -1.5398 -2.4682  1.5950
 1408ESO     O123885   2.706   2.576   0.923  0.4247 -0.3653  0.0653
 1408ESO     O123886   2.936   2.639   0.895 -0.5275  0.1586 -0.1104
 1408ESO     O123887   2.870   2.420   0.843  0.4937 -0.1931 -0.3457
 1408ESO      S23888   2.829   2.556   0.848 -0.2350 -0.2128 -0.2066
 1408ESO     O223889   2.806   2.610   0.696  0.1319 -0.5017  0.2415
 1408ESO    C1a23890   2.709   2.539   0.621  0.2974  0.0138  0.4351
 1408ESO    H1a23891   2.760   2.486   0.539  0.6517  1.5570 -0.0472
 1408ESO    H1a23892   2.646   2.469   0.682  0.8093 -2.4158 -0.6260
 1408ESO    C2a23893   2.627   2.659   0.571 -0.2598  1.0908 -0.3225
 1408ESO    H2a23894   2.564   2.702   0.650 -1.2944 -0.4466 -1.2037
 1408ESO    H2a23895   2.567   2.627   0.488  1.7286  1.6743 -2.1734
 1408ESO    H2a23896   2.683   2.733   0.522  2.8649 -0.8056  1.4873
 1409ESO     O123897   0.115   1.042   5.614 -0.5285  0.7049  0.0151
 1409ESO     O123898   0.090   1.021   5.375 -1.0017  0.6981  0.1323
 1409ESO     O123899  -0.004   1.213   5.486 -1.0357 -0.3967  0.2728
 1409ESO      S23900   0.102   1.111   5.486 -0.4519 -0.2764 -0.2398
 1409ESO     O223901   0.238   1.186   5.466  0.0986 -0.0275  0.7816
 1409ESO    C1a23902   0.363   1.109   5.455  0.3555 -0.4473 -0.2164
 1409ESO    H1a23903   0.363   1.016   5.519 -0.2787  1.4120  1.0300
 1409ESO    H1a23904   0.377   1.080   5.351  0.7478 -1.6242 -1.3213
 1409ESO    C2a23905   0.478   1.196   5.498  0.5199  0.3111 -0.3981
 1409ESO    H2a23906   0.478   1.176   5.602  0.2107  0.4942 -1.1472
 1409ESO    H2a23907   0.464   1.301   5.479  3.6687 -0.3611  1.3537
 1409ESO    H2a23908   0.576   1.177   5.445  0.6163  0.8851 -2.9605
 1410ESO     O123909   0.300   0.954   1.992  0.6342  0.1205  0.0915
 1410ESO     O123910   0.119   1.081   1.924  0.1890 -0.5739  0.1045
 1410ESO     O123911   0.297   1.194   2.030  0.0744  0.0910 -0.4664
 1410ESO      S23912   0.257   1.082   1.948  0.0915 -0.3447 -0.3751
 1410ESO     O223913   0.317   1.111   1.812 -0.1270 -0.4991  0.4853
 1410ESO    C1a23914   0.459   1.082   1.799  0.1602 -0.0645  0.1249
 1410ESO    H1a23915   0.502   1.052   1.900 -2.5874 -1.8310  0.1959
 1410ESO    H1a23916   0.469   0.994   1.732 -1.8972 -2.4100 -2.0599
 1410ESO    C2a23917   0.522   1.194   1.728  0.4706 -0.0461 -0.5170
 1410ESO    H2a23918   0.525   1.289   1.784  1.8142  0.4298  0.0956
 1410ESO    H2a23919   0.476   1.217   1.630  1.0891  0.7933 -0.6113
 1410ESO    H2a23920   0.624   1.177   1.701 -0.1374  0.9838  0.4199
 1411ESO     O123921   0.871   6.022   0.175 -0.0712 -0.1267 -0.2276
 1411ESO     O123922   0.689   6.039   0.019  0.3768  0.4444 -0.7959
 1411ESO     O123923   0.702   5.855   0.180 -0.0829 -0.1994 -0.7320
 1411ESO      S23924   0.731   5.994   0.150 -0.0617  0.2640  0.6395
 1411ESO     O223925   0.642   6.086   0.254 -0.0991  0.0456 -0.3511
 1411ESO    C1a23926   0.654   6.232   0.238  0.1042 -0.3126  0.3994
 1411ESO    H1a23927   0.753   6.259   0.270 -3.7979 -0.8514 -0.7403
 1411ESO    H1a23928   0.639   6.257   0.135 -1.0100  3.8842 -1.2219
 1411ESO    C2a23929   0.541   6.295   0.316 -0.1789  0.4055 -0.7340
 1411ESO    H2a23930   0.446   6.305   0.256 -0.3335  2.2768 -2.3827
 1411ESO    H2a23931   0.581   6.396   0.339  0.4163 -1.4523 -0.1623
 1411ESO    H2a23932   0.515   6.235   0.404 -1.1663  1.5377 -1.1451
 1412ESO     O123933   6.351   4.103   3.121  0.1000  0.6684 -0.7369
 1412ESO     O123934   6.129   4.107   3.040  0.2830 -0.1431  0.1151
 1412ESO     O123935   6.249   3.901   3.039 -0.3810  0.0052  0.1683
 1412ESO      S23936   6.228   4.028   3.102 -0.1038  0.2663  0.2234
 1412ESO     O223937   6.174   3.998   3.245 -0.0253 -0.5843  0.0977
 1412ESO    C1a23938   6.256   3.935   3.347  0.5377  0.1354 -0.0458
 1412ESO    H1a23939   6.271   3.834   3.316 -2.9851 -1.3618 -0.3293
 1412ESO    H1a23940   6.352   3.986   3.361 -2.1349 -0.1554  0.2665
 1412ESO    C2a23941   6.164   3.938   3.470  0.2162 -0.4643  0.4278
 1412ESO    H2a23942   6.077   3.871   3.458  2.9632 -0.5349 -2.2839
 1412ESO    H2a23943   6.122   4.039   3.484 -2.3685 -1.1728  0.4035
 1412ESO    H2a23944   6.214   3.906   3.565 -1.3532 -0.9661 -0.0264
 1413ESO     O123945   2.762   5.963   3.986  0.0358  0.3412  0.1382
 1413ESO     O123946   2.547   6.029   4.048 -0.4988  0.4535  0.1902
 1413ESO     O123947   2.683   5.931   4.220 -0.0813 -0.9399 -0.0882
 1413ESO      S23948   2.679   6.009   4.096 -0.2610  0.0635  0.2336
 1413ESO     O223949   2.731   6.153   4.132 -0.0951  0.7689  0.1322
 1413ESO    C1a23950   2.869   6.171   4.180  0.3958  0.2589 -1.0339
 1413ESO    H1a23951   2.905   6.098   4.248 -0.0963  0.5183  2.1852
 1413ESO    H1a23952   2.939   6.166   4.095 -0.9554 -0.5352  0.7158
 1413ESO    C2a23953   2.877   6.303   4.248  0.1142 -0.2585 -0.6857
 1413ESO    H2a23954   2.849   6.376   4.169 -0.5495 -0.3423 -0.5374
 1413ESO    H2a23955   2.973   6.330   4.267 -1.6743  0.8714 -1.9027
 1413ESO    H2a23956   2.821   6.316   4.332  1.5490  0.5748 -1.2735
 1414ESO     O123957   3.864   2.757   1.050 -0.2726 -0.0200 -0.4629
 1414ESO     O123958   3.793   2.822   1.269 -0.4892 -0.3808  0.3375
 1414ESO     O123959   4.031   2.820   1.211  0.1642  0.4767  0.4285
 1414ESO      S23960   3.896   2.839   1.169 -0.0400  0.2342  0.6712
 1414ESO     O223961   3.876   2.986   1.112  0.1341  0.1580  0.0153
 1414ESO    C1a23962   3.939   3.097   1.192 -0.3980  0.3258  0.3681
 1414ESO    H1a23963   3.864   3.141   1.262  0.1137 -1.2793  0.9858
 1414ESO    H1a23964   4.021   3.058   1.252  0.6924 -0.8783  0.4914
 1414ESO    C2a23965   3.996   3.202   1.093 -0.9060 -0.4227 -0.2866
 1414ESO    H2a23966   4.010   3.153   0.989  2.0685 -0.8629 -0.9536
 1414ESO    H2a23967   4.090   3.241   1.130 -1.9103 -0.9951  2.1299
 1414ESO    H2a23968   3.930   3.290   1.081 -1.0684  0.8508 -0.9658
 1415ESO     O123969   4.237   3.982   5.694 -0.4333 -0.5327  0.3978
 1415ESO     O123970   3.999   3.979   5.661  0.0282 -0.0162 -0.2249
 1415ESO     O123971   4.097   4.185   5.726 -0.2012  0.4996 -0.1566
 1415ESO      S23972   4.118   4.059   5.657 -0.2690  0.3581  0.1559
 1415ESO     O223973   4.136   4.088   5.504 -0.4118 -0.0872 -0.1314
 1415ESO    C1a23974   4.021   4.140   5.437  0.4335  0.6154 -0.2464
 1415ESO    H1a23975   3.990   4.079   5.350 -0.6206 -2.4146 -0.8687
 1415ESO    H1a23976   3.933   4.156   5.503 -0.9717 -1.7396 -0.9545
 1415ESO    C2a23977   4.049   4.273   5.393 -0.4563  0.5326  0.4468
 1415ESO    H2a23978   4.034   4.334   5.484  3.4391 -1.6510  1.8878
 1415ESO    H2a23979   3.969   4.298   5.328  1.5051  0.0723  0.2868
 1415ESO    H2a23980   4.144   4.274   5.351 -0.0930  0.2387  1.3154
 1416ESO     O123981   1.857   1.150   6.718 -0.2881 -0.4951  0.1004
 1416ESO     O123982   2.063   1.058   6.800  0.5386 -0.0777  0.0459
 1416ESO     O123983   1.983   1.266   6.895 -0.1526  0.4690  0.1373
 1416ESO      S23984   1.945   1.142   6.833  0.1605  0.2091 -0.0165
 1416ESO     O223985   1.861   1.069   6.937 -0.4193  0.7812 -0.1968
 1416ESO    C1a23986   1.925   1.005   7.046 -0.2467 -0.5116  0.6879
 1416ESO    H1a23987   1.995   0.923   7.019  1.0770  2.6879  1.1206
 1416ESO    H1a23988   1.973   1.079   7.109  0.6936 -1.5039 -0.2724
 1416ESO    C2a23989   1.807   0.945   7.125 -0.0618  0.6993  0.1965
 1416ESO    H2a23990   1.714   0.970   7.080  0.8703 -0.0449 -1.7127
 1416ESO    H2a23991   1.815   0.981   7.228  1.7378 -1.9876  0.6771
 1416ESO    H2a23992   1.817   0.834   7.124  1.1382  1.8287 -1.6932
 1417ESO     O123993   4.972   1.876   1.236 -0.5765 -0.0550  0.3685
 1417ESO     O123994   4.803   2.047   1.281  0.1905  0.2758  0.5017
 1417ESO     O123995   5.020   2.066   1.377 -0.9143  0.0367 -0.3692
 1417ESO      S23996   4.944   2.017   1.267 -0.6914 -0.5361 -0.0676
 1417ESO     O223997   4.983   2.109   1.138  0.1124  0.2968  0.0768
 1417ESO    C1a23998   5.105   2.080   1.059  0.1370 -0.7125 -0.6138
 1417ESO    H1a23999   5.160   1.999   1.102  0.6857  0.5831  2.2078
 1417ESO    H1a24000   5.083   2.068   0.960  0.7119  0.2615  2.3378
 1417ESO    C2a24001   5.183   2.208   1.078 -0.1836  0.6151 -0.1375
 1417ESO    H2a24002   5.215   2.233   1.183  0.6895 -0.8604 -0.1734
 1417ESO    H2a24003   5.117   2.285   1.042 -0.7866 -1.3607 -2.7517
 1417ESO    H2a24004   5.267   2.217   1.015 -2.1188 -0.0938 -0.7977
 1418ESO     O124005   3.621   5.956   1.171 -0.2847  0.3114  0.1200
 1418ESO     O124006   3.671   6.174   1.116  0.0168 -0.1134  0.2328
 1418ESO     O124007   3.471   6.122   1.235 -0.4815 -0.1448 -0.8875
 1418ESO      S24008   3.610   6.089   1.214 -0.3339 -0.0912 -0.2637
 1418ESO     O224009   3.693   6.090   1.340  0.1771  0.3583 -0.5574
 1418ESO    C1a24010   3.656   6.016   1.462  0.1197 -0.0265  0.3002
 1418ESO    H1a24011   3.607   6.085   1.529  0.0602 -0.4002  0.9850
 1418ESO    H1a24012   3.589   5.930   1.444  0.0928  1.1627 -0.2728
 1418ESO    C2a24013   3.779   5.978   1.522 -0.6237 -0.2132  0.8298
 1418ESO    H2a24014   3.781   5.873   1.552  0.0883 -2.3800 -0.0404
 1418ESO    H2a24015   3.793   6.042   1.609  0.6655 -0.8969 -0.2229
 1418ESO    H2a24016   3.872   5.999   1.469 -0.7954 -1.4330  0.6280
 1419ESO     O124017   2.835   5.008   5.763  0.2172  0.0832  0.5383
 1419ESO     O124018   2.792   5.239   5.782  0.0624 -0.2524 -0.2219
 1419ESO     O124019   2.721   5.122   5.585  0.2124  0.3906 -0.4520
 1419ESO      S24020   2.745   5.116   5.727  0.0630  0.1016 -0.4245
 1419ESO     O224021   2.602   5.092   5.780 -0.8166 -0.0844 -0.0241
 1419ESO    C1a24022   2.574   5.047   5.915  0.8236  0.3925 -0.2500
 1419ESO    H1a24023   2.621   4.946   5.937 -1.3957  1.7541 -0.1449
 1419ESO    H1a24024   2.595   5.123   5.988 -1.1061 -1.4546 -0.7524
 1419ESO    C2a24025   2.425   5.039   5.925 -0.1299  0.2125 -0.5124
 1419ESO    H2a24026   2.393   5.011   6.027  0.4029 -1.1659  1.1917
 1419ESO    H2a24027   2.382   4.964   5.862  1.4880  0.5846  4.8750
 1419ESO    H2a24028   2.377   5.132   5.891  0.1864 -0.1329 -1.4267
 1420ESO     O124029   0.448   2.493   3.836 -0.3150 -0.8701  0.4474
 1420ESO     O124030   0.216   2.478   3.832  0.0602 -0.4724  0.3044
 1420ESO     O124031   0.322   2.402   4.017  0.1696  0.1697 -0.3781
 1420ESO      S24032   0.327   2.494   3.913  0.2333 -0.3181  0.2194
 1420ESO     O224033   0.310   2.632   3.977 -0.4700  0.1726  0.5806
 1420ESO    C1a24034   0.313   2.751   3.901 -0.8478  0.0108 -0.0208
 1420ESO    H1a24035   0.350   2.739   3.797  0.1033  3.8545 -3.3055
 1420ESO    H1a24036   0.214   2.795   3.890 -0.7454  0.6847  0.3985
 1420ESO    C2a24037   0.409   2.858   3.963  0.3982  1.1418 -0.1587
 1420ESO    H2a24038   0.366   2.884   4.053 -0.8989 -0.6850 -0.3155
 1420ESO    H2a24039   0.417   2.951   3.907  3.0710 -1.6598  0.9788
 1420ESO    H2a24040   0.505   2.818   3.984  1.1446 -0.1038  0.0044
 1421ESO     O124041   4.587   2.278   3.782  0.5741 -0.3713  0.6537
 1421ESO     O124042   4.582   2.067   3.892 -0.1632 -0.1061 -0.3484
 1421ESO     O124043   4.788   2.188   3.872 -0.1658 -0.3238  0.2062
 1421ESO      S24044   4.647   2.199   3.885 -0.3287 -0.2166  0.4884
 1421ESO     O224045   4.613   2.282   4.014 -0.9591  0.1158 -0.3649
 1421ESO    C1a24046   4.587   2.221   4.139  0.1851  0.5246  0.4405
 1421ESO    H1a24047   4.618   2.121   4.147  0.4932  1.2252  0.3161
 1421ESO    H1a24048   4.656   2.269   4.213  1.1332  1.4021 -0.1447
 1421ESO    C2a24049   4.441   2.235   4.165 -0.2801  0.4912  0.2526
 1421ESO    H2a24050   4.405   2.335   4.185 -2.1030  0.5067 -1.4679
 1421ESO    H2a24051   4.410   2.175   4.250  1.3784 -1.2382  0.0068
 1421ESO    H2a24052   4.376   2.193   4.088 -1.0184 -0.3012 -3.1089
 1422ESO     O124053   4.476   5.039   2.793  0.4399  0.4699  0.3020
 1422ESO     O124054   4.461   5.014   2.557 -0.0053 -1.2380  0.2483
 1422ESO     O124055   4.368   4.849   2.704 -0.1841  0.6045 -0.2586
 1422ESO      S24056   4.396   4.986   2.685 -0.4691 -0.0356  0.2290
 1422ESO     O224057   4.267   5.072   2.693  0.2871  0.4352  0.0915
 1422ESO    C1a24058   4.256   5.211   2.662 -0.1140 -0.4393 -0.9464
 1422ESO    H1a24059   4.338   5.258   2.717 -0.0208 -1.6020  0.8253
 1422ESO    H1a24060   4.271   5.234   2.560 -0.8034  0.7626  1.3366
 1422ESO    C2a24061   4.126   5.268   2.720 -0.1255  1.0149 -0.1547
 1422ESO    H2a24062   4.114   5.366   2.695 -0.5280 -0.2179 -2.1779
 1422ESO    H2a24063   4.132   5.245   2.827  1.9980  1.7721  2.8390
 1422ESO    H2a24064   4.044   5.224   2.673 -1.2229 -0.1888  1.0601
 1423ESO     O124065   5.223   0.742   4.844  0.2994  0.0569 -0.2809
 1423ESO     O124066   5.177   0.806   4.618 -0.5443  0.3790 -0.2847
 1423ESO     O124067   5.296   0.606   4.668  0.6064 -0.0338 -0.4167
 1423ESO      S24068   5.198   0.700   4.713 -0.4798  0.4923  0.1098
 1423ESO     O224069   5.057   0.628   4.711 -0.1239  0.2502 -0.5534
 1423ESO    C1a24070   5.055   0.496   4.776  0.8521 -0.2567 -0.2751
 1423ESO    H1a24071   5.041   0.417   4.702  3.7988  0.3220  0.6411
 1423ESO    H1a24072   5.145   0.473   4.840  1.3154 -1.6425 -0.9278
 1423ESO    C2a24073   4.927   0.493   4.861  0.0444 -0.1904 -0.2938
 1423ESO    H2a24074   4.929   0.414   4.937  0.9332  0.2254  1.1310
 1423ESO    H2a24075   4.835   0.483   4.800 -3.1897 -1.3853  1.4454
 1423ESO    H2a24076   4.917   0.581   4.921 -0.7423 -3.0518  1.4051
 1424ESO     O124077   2.671   6.378   5.641  0.0406 -0.4791  0.8136
 1424ESO     O124078   2.516   6.225   5.539 -0.7267 -0.2652 -0.3521
 1424ESO     O124079   2.742   6.225   5.476  0.1119  0.4024 -0.3371
 1424ESO      S24080   2.653   6.248   5.585 -0.0562  0.1282 -0.2582
 1424ESO     O224081   2.672   6.142   5.699 -0.6040  0.1150 -0.7398
 1424ESO    C1a24082   2.805   6.144   5.759  0.0848  0.1215 -0.6895
 1424ESO    H1a24083   2.881   6.167   5.687 -1.3359 -1.1674 -0.6679
 1424ESO    H1a24084   2.811   6.221   5.840  0.1972  0.2754  1.3563
 1424ESO    C2a24085   2.834   6.001   5.817  0.1626 -0.4408  0.3001
 1424ESO    H2a24086   2.846   5.922   5.739 -1.3846  0.5066 -1.6969
 1424ESO    H2a24087   2.762   5.973   5.888 -0.9407  1.5636 -0.6244
 1424ESO    H2a24088   2.932   6.003   5.864  1.7024  1.0334  0.1017
 1425ESO     O124089   4.050   5.094   5.540 -0.2811  0.2952 -0.3734
 1425ESO     O124090   3.976   5.083   5.774  0.2144  0.3603 -0.2839
 1425ESO     O124091   3.821   5.129   5.605  0.1870  0.5657  0.4716
 1425ESO      S24092   3.943   5.060   5.634  0.5989  0.4346 -0.7236
 1425ESO     O224093   3.911   4.905   5.624 -0.4858  0.5205 -0.0911
 1425ESO    C1a24094   4.016   4.806   5.636 -0.0773 -0.2963 -0.4245
 1425ESO    H1a24095   4.085   4.806   5.560  2.9009 -1.7640  0.1285
 1425ESO    H1a24096   4.071   4.816   5.730  2.5408  0.6866  1.8143
 1425ESO    C2a24097   3.950   4.670   5.650 -0.3789 -0.9869 -0.2356
 1425ESO    H2a24098   4.026   4.590   5.674  1.5528  2.4234 -0.6096
 1425ESO    H2a24099   3.903   4.651   5.558  1.0246  1.8569  0.1061
 1425ESO    H2a24100   3.877   4.669   5.736  0.3111  0.7495  1.9480
 1426ESO     O124101   5.723   0.730   1.022  0.6424  0.4493 -0.2926
 1426ESO     O124102   5.787   0.520   0.933  0.6198  0.6641  0.3256
 1426ESO     O124103   5.930   0.721   0.894  0.3193  0.3091 -0.4170
 1426ESO      S24104   5.837   0.648   0.982 -0.1338 -0.0959  0.1048
 1426ESO     O224105   5.908   0.606   1.114 -0.4810  0.0838 -0.1791
 1426ESO    C1a24106   5.833   0.551   1.216  0.2174  0.2364  0.0914
 1426ESO    H1a24107   5.762   0.629   1.243  0.7106  1.2928  0.5128
 1426ESO    H1a24108   5.778   0.460   1.180 -1.4651 -0.1773 -1.2825
 1426ESO    C2a24109   5.931   0.527   1.329  0.1210 -0.3423  0.3050
 1426ESO    H2a24110   5.878   0.502   1.425 -1.0336  2.6572  1.5243
 1426ESO    H2a24111   5.985   0.616   1.353  1.6842 -1.1713 -0.2066
 1426ESO    H2a24112   6.004   0.445   1.307  1.9724 -1.4720 -0.5694
 1427ESO     O124113   3.952   0.155   6.343 -0.0927  0.1233  0.0865
 1427ESO     O124114   3.977   0.109   6.114 -0.0563 -0.4313  0.2198
 1427ESO     O124115   3.773   0.187   6.194  0.2075  0.5803  0.3818
 1427ESO      S24116   3.914   0.190   6.210 -0.4525 -0.0417  0.0599
 1427ESO     O224117   3.964   0.333   6.185 -0.5643 -0.1950  0.1012
 1427ESO    C1a24118   3.931   0.435   6.282  0.3301  0.0415  0.0044
 1427ESO    H1a24119   3.832   0.483   6.261 -2.9527  0.5882  1.1230
 1427ESO    H1a24120   3.920   0.391   6.385  0.0346  1.8666  0.8872
 1427ESO    C2a24121   4.034   0.541   6.290 -0.1686  0.5179 -0.2479
 1427ESO    H2a24122   3.994   0.622   6.350  3.1924 -0.9806 -1.3016
 1427ESO    H2a24123   4.063   0.575   6.193  1.9520  0.7043 -1.7670
 1427ESO    H2a24124   4.125   0.501   6.331  0.5513 -0.9257  1.7786
 1428ESO     O124125   2.261   0.411   4.367  0.0244  0.7676 -0.1494
 1428ESO     O124126   2.495   0.376   4.421 -0.3647  0.7015  0.2089
 1428ESO     O124127   2.401   0.597   4.389 -0.2796 -0.4548 -0.1692
 1428ESO      S24128   2.377   0.463   4.430 -0.1247 -0.4808 -0.1897
 1428ESO     O224129   2.342   0.470   4.586  0.4299 -0.2328 -0.2308
 1428ESO    C1a24130   2.214   0.523   4.634  0.1962  1.1448  0.2024
 1428ESO    H1a24131   2.249   0.574   4.718  2.2618 -0.5238  2.7308
 1428ESO    H1a24132   2.175   0.595   4.563 -0.0986  0.6329  2.8368
 1428ESO    C2a24133   2.123   0.411   4.666  0.4869 -0.0680 -0.5899
 1428ESO    H2a24134   2.039   0.452   4.722 -0.0008  0.9265  0.5329
 1428ESO    H2a24135   2.174   0.329   4.730  0.7044  0.2069  0.1486
 1428ESO    H2a24136   2.083   0.374   4.576  1.9911  0.3235 -1.2810
 1429ESO     O124137   0.681   3.822   4.168 -0.0563 -0.3273  0.2395
 1429ESO     O124138   0.762   3.912   3.965  0.1966  0.3674  0.1935
 1429ESO     O124139   0.797   3.679   4.025 -0.0413  0.2961 -0.1007
 1429ESO      S24140   0.712   3.795   4.033 -0.0945 -0.4260 -0.0162
 1429ESO     O224141   0.576   3.765   3.971 -0.5099 -0.1482  0.1695
 1429ESO    C1a24142   0.561   3.733   3.831  0.4158  0.4248 -0.2960
 1429ESO    H1a24143   0.646   3.774   3.775 -2.7882  1.4377 -2.7458
 1429ESO    H1a24144   0.559   3.626   3.829  1.0929 -0.8339  0.0085
 1429ESO    C2a24145   0.433   3.790   3.773 -0.3872 -0.2207  0.5969
 1429ESO    H2a24146   0.428   3.898   3.786 -1.2346 -3.7259 -1.5421
 1429ESO    H2a24147   0.340   3.741   3.794  0.6581 -0.3437 -0.0159
 1429ESO    H2a24148   0.450   3.773   3.667 -2.0200  0.1820  1.6587
 1430ESO     O124149   2.929   1.923   4.801  0.5487  0.4968  0.1850
 1430ESO     O124150   2.910   1.878   5.033 -0.6997  0.4147 -0.4155
 1430ESO     O124151   3.108   1.981   4.948  0.0160 -0.2604  0.1233
 1430ESO      S24152   2.968   1.964   4.931 -0.4706 -0.0978  0.0854
 1430ESO     O224153   2.894   2.100   4.953  0.6868  0.7052  0.0856
 1430ESO    C1a24154   2.750   2.112   4.972 -0.1478  0.1212 -0.2433
 1430ESO    H1a24155   2.698   2.056   4.894  1.6132 -0.7911  0.9133
 1430ESO    H1a24156   2.723   2.069   5.066 -1.7455  1.6362 -0.3021
 1430ESO    C2a24157   2.714   2.256   4.993 -0.3686 -0.0535 -0.6332
 1430ESO    H2a24158   2.769   2.291   5.081 -1.4109 -0.0297 -1.8104
 1430ESO    H2a24159   2.614   2.266   5.015  0.8695  1.3841  0.4827
 1430ESO    H2a24160   2.732   2.315   4.908  1.0906 -0.6479 -0.6012
 1431ESO     O124161   0.517   6.296   4.690 -0.4479  0.3644  0.2666
 1431ESO     O124162   0.308   6.429   4.690  0.3294  0.1633  0.3800
 1431ESO     O124163   0.522   6.534   4.741 -0.1459  0.4155 -0.4080
 1431ESO      S24164   0.451   6.428   4.671 -0.7289 -0.3249 -0.4214
 1431ESO     O224165   0.486   6.472   4.518  0.1635  0.0625  0.2440
 1431ESO    C1a24166   0.497   6.372   4.417 -0.6312  0.8243  0.3591
 1431ESO    H1a24167   0.483   6.272   4.455 -2.8562  1.8231  0.5059
 1431ESO    H1a24168   0.416   6.388   4.343  0.1173 -0.0834  0.3400
 1431ESO    C2a24169   0.638   6.371   4.365 -0.2737  0.0114 -0.9106
 1431ESO    H2a24170   0.715   6.355   4.449  0.9083  0.8759 -0.1446
 1431ESO    H2a24171   0.655   6.470   4.314  2.0928 -0.4143 -0.2887
 1431ESO    H2a24172   0.649   6.292   4.288  0.5165  3.6352  3.1788
 1432ESO     O124173   4.929   0.796   0.920  0.6014 -0.1140 -0.1405
 1432ESO     O124174   4.753   0.731   1.081  0.3519 -0.1958  0.0304
 1432ESO     O124175   4.710   0.726   0.850  0.4068 -0.3524 -0.2949
 1432ESO      S24176   4.810   0.713   0.949 -0.1169  0.3602 -0.2655
 1432ESO     O224177   4.858   0.555   0.949  0.2792 -0.3625 -0.3302
 1432ESO    C1a24178   4.951   0.495   0.859  0.4843  0.8627  0.6508
 1432ESO    H1a24179   5.022   0.563   0.815 -3.3607  0.3567 -0.8274
 1432ESO    H1a24180   5.005   0.427   0.912 -1.7589 -0.0552  1.3702
 1432ESO    C2a24181   4.870   0.426   0.752  0.1380  0.3105 -0.5062
 1432ESO    H2a24182   4.816   0.492   0.690 -0.3515 -1.3548  0.2990
 1432ESO    H2a24183   4.792   0.370   0.793  1.0995  1.2026 -1.2238
 1432ESO    H2a24184   4.933   0.365   0.692 -2.8442  0.2848  0.3178
 1433ESO     O124185   0.809   5.198   4.059 -0.4482 -0.2053  0.2518
 1433ESO     O124186   0.770   5.359   4.222  0.1099 -0.4023  0.1252
 1433ESO     O124187   0.893   5.154   4.271 -0.2628 -0.2754  0.4342
 1433ESO      S24188   0.862   5.258   4.179  0.2948  0.2197  0.3940
 1433ESO     O224189   0.995   5.331   4.137  0.1249  0.4630 -0.1111
 1433ESO    C1a24190   0.977   5.466   4.070  0.1761 -0.0807  0.0257
 1433ESO    H1a24191   0.873   5.498   4.065  2.2346  1.4281  1.3898
 1433ESO    H1a24192   1.031   5.538   4.125 -0.2496  0.4056  0.6310
 1433ESO    C2a24193   1.033   5.438   3.938 -0.4930  0.4540  0.1474
 1433ESO    H2a24194   1.138   5.401   3.937 -0.6223  2.4286  0.7373
 1433ESO    H2a24195   1.043   5.522   3.869 -0.3864  2.4006  0.6244
 1433ESO    H2a24196   0.978   5.369   3.882  2.3539 -0.5201  0.8243
 1434ESO     O124197   6.578   5.634   4.960 -0.2729  0.4642  0.3304
 1434ESO     O124198   6.571   5.859   5.038 -0.0358  0.2087 -0.6819
 1434ESO     O124199   6.376   5.760   4.949  0.2568  0.3155  0.0265
 1434ESO      S24200   6.497   5.737   5.014  0.0015  0.1436 -0.1423
 1434ESO     O224201   6.447   5.668   5.148 -0.4363 -0.1283  0.0646
 1434ESO    C1a24202   6.556   5.641   5.243 -0.6025 -0.3854 -0.0197
 1434ESO    H1a24203   6.621   5.566   5.199  1.4589 -1.0674  1.5750
 1434ESO    H1a24204   6.599   5.730   5.275 -0.2590 -0.2420  0.3734
 1434ESO    C2a24205   6.497   5.580   5.366 -0.6949  1.1134  0.2181
 1434ESO    H2a24206   6.445   5.487   5.340 -4.5508  1.3203  0.9191
 1434ESO    H2a24207   6.420   5.642   5.400  0.2453 -0.3960 -0.9490
 1434ESO    H2a24208   6.569   5.568   5.437 -1.6557 -0.8891 -1.1336
 1435ESO     O124209   4.056   5.776   0.467 -0.5077 -0.1355  0.3072
 1435ESO     O124210   3.992   5.957   0.602  0.2064 -0.1381 -0.4018
 1435ESO     O124211   4.116   6.008   0.406 -0.1556  0.0291 -0.2132
 1435ESO      S24212   4.020   5.921   0.469  0.1856 -0.0891  0.0787
 1435ESO     O224213   3.883   5.941   0.388  0.4400 -0.5727  0.8285
 1435ESO    C1a24214   3.780   5.838   0.409 -0.1938  0.0738 -0.8821
 1435ESO    H1a24215   3.810   5.751   0.350 -2.2403  0.8792  0.4528
 1435ESO    H1a24216   3.779   5.808   0.511  1.2830 -0.8273  1.0701
 1435ESO    C2a24217   3.644   5.902   0.375 -0.4825 -0.5265  1.3785
 1435ESO    H2a24218   3.563   5.828   0.389 -0.3741  1.2519 -1.0890
 1435ESO    H2a24219   3.649   5.928   0.272  0.3029 -2.8333 -0.8206
 1435ESO    H2a24220   3.636   5.998   0.434 -1.2246  0.8348 -0.0494
 1436ESO     O124221   3.825   0.753   3.110  0.1113  0.0967  0.2667
 1436ESO     O124222   3.809   0.971   3.014 -0.4338  0.2217  0.1073
 1436ESO     O124223   3.684   0.791   2.931 -0.5848 -0.1770  0.6362
 1436ESO      S24224   3.746   0.849   3.045 -0.0306 -0.4349  0.1279
 1436ESO     O224225   3.632   0.882   3.150 -0.0792  0.0128 -0.7126
 1436ESO    C1a24226   3.673   0.947   3.271  0.2065 -0.5064 -0.2943
 1436ESO    H1a24227   3.710   0.881   3.349 -1.9742 -1.2549  0.5367
 1436ESO    H1a24228   3.743   1.027   3.252 -1.1073  2.5686  3.2970
 1436ESO    C2a24229   3.552   1.005   3.335 -0.3957 -0.2738 -0.4685
 1436ESO    H2a24230   3.467   0.936   3.337  1.4035 -2.8958  1.0493
 1436ESO    H2a24231   3.532   1.093   3.281 -0.4904 -0.2503 -2.7304
 1436ESO    H2a24232   3.568   1.041   3.434 -0.1591  1.3113  0.1467
 1437ESO     O124233   1.904   0.654   1.585 -0.0677 -0.0229  0.3013
 1437ESO     O124234   1.844   0.816   1.417  0.0788 -0.3492 -0.9365
 1437ESO     O124235   1.707   0.624   1.456  0.0682 -0.5681  0.1268
 1437ESO      S24236   1.796   0.721   1.512 -0.0461 -0.0209 -0.0378
 1437ESO     O224237   1.707   0.781   1.621 -0.3556 -0.4131 -0.5888
 1437ESO    C1a24238   1.749   0.910   1.678 -0.0756  0.4445  0.3949
 1437ESO    H1a24239   1.859   0.919   1.673  0.5896  0.4414  0.3352
 1437ESO    H1a24240   1.694   0.997   1.626 -1.3100  1.3373  0.8261
 1437ESO    C2a24241   1.710   0.901   1.821  0.4917 -0.1506  0.3751
 1437ESO    H2a24242   1.614   0.863   1.836  2.6066  2.1149 -3.3086
 1437ESO    H2a24243   1.712   1.001   1.863 -0.2541  1.6476  1.0220
 1437ESO    H2a24244   1.773   0.839   1.886 -2.0566  0.5137  0.2542
 1438ESO     O124245   1.052   6.818   5.124  0.6027 -0.1740 -0.4254
 1438ESO     O124246   0.888   6.996   5.134  0.3743 -0.2624 -0.3513
 1438ESO     O124247   0.951   6.907   4.921 -0.7439  0.1731 -0.2928
 1438ESO      S24248   0.937   6.883   5.062  0.2326 -0.2209  0.2447
 1438ESO     O224249   0.817   6.780   5.068  0.0819  0.1627  0.4942
 1438ESO    C1a24250   0.781   6.725   5.198  0.5806 -0.1075 -0.4003
 1438ESO    H1a24251   0.845   6.643   5.221  0.1034  1.2282  1.9560
 1438ESO    H1a24252   0.787   6.798   5.273 -2.1820 -1.6869 -2.1804
 1438ESO    C2a24253   0.640   6.682   5.198  0.5860  0.4194 -0.2668
 1438ESO    H2a24254   0.619   6.657   5.094 -0.5641 -0.2474  0.0190
 1438ESO    H2a24255   0.580   6.767   5.222  2.5032 -2.0079 -0.0286
 1438ESO    H2a24256   0.618   6.596   5.261  0.3025  0.1014  3.1823
 1439ESO     O124257   1.417   3.109   4.367 -0.2693 -0.0724  0.0982
 1439ESO     O124258   1.355   2.900   4.460  0.3686 -0.3026  0.3067
 1439ESO     O124259   1.458   3.061   4.602  0.8788 -0.0826 -0.4987
 1439ESO      S24260   1.375   3.039   4.487 -0.0661 -0.2806  0.1088
 1439ESO     O224261   1.231   3.081   4.520  0.0043  0.4789  0.0861
 1439ESO    C1a24262   1.216   3.217   4.572  0.4531  0.0499 -0.0574
 1439ESO    H1a24263   1.301   3.232   4.637 -1.9877  1.1322 -0.1640
 1439ESO    H1a24264   1.227   3.293   4.494  1.2561  0.6200  1.0231
 1439ESO    C2a24265   1.084   3.226   4.646 -0.3201 -0.2130  0.0404
 1439ESO    H2a24266   1.092   3.191   4.750  0.0829 -0.8696 -1.4139
 1439ESO    H2a24267   1.006   3.167   4.592  1.5546  1.7063  1.9409
 1439ESO    H2a24268   1.069   3.331   4.643  1.2053 -1.1884 -0.1037
 1440ESO     O124269   4.727   1.391   6.117 -0.1572 -0.3169  0.8980
 1440ESO     O124270   4.788   1.237   5.933  0.2093 -0.2130 -0.6126
 1440ESO     O124271   4.910   1.441   5.969  0.0307  0.1349 -0.2024
 1440ESO      S24272   4.829   1.341   6.028  0.4712  0.0099  0.0650
 1440ESO     O224273   4.915   1.256   6.121  0.4456  0.4670 -0.1118
 1440ESO    C1a24274   5.036   1.191   6.073 -0.5378  0.9850  0.2934
 1440ESO    H1a24275   5.007   1.111   6.007  1.5525  1.0970 -0.7165
 1440ESO    H1a24276   5.110   1.263   6.031  2.1144  0.8884  0.9024
 1440ESO    C2a24277   5.104   1.137   6.196 -0.0070  0.3781 -0.6608
 1440ESO    H2a24278   5.135   1.218   6.249 -0.6119 -3.3118  1.8792
 1440ESO    H2a24279   5.196   1.079   6.160 -0.1757 -1.9969 -2.7816
 1440ESO    H2a24280   5.043   1.080   6.274 -3.2057  0.0432 -0.4170
 1441ESO     O124281   6.272   1.676   5.134  0.3380 -0.0780  0.0945
 1441ESO     O124282   6.451   1.529   5.185 -0.3769  0.1364  0.0918
 1441ESO     O124283   6.243   1.436   5.093 -0.1306  0.1337  0.3280
 1441ESO      S24284   6.330   1.550   5.104  0.1594 -0.3404 -0.2177
 1441ESO     O224285   6.392   1.580   4.960 -0.3647 -0.0086  0.2374
 1441ESO    C1a24286   6.459   1.478   4.890  0.3322 -0.5963  0.9188
 1441ESO    H1a24287   6.469   1.397   4.956  2.2597 -0.8402 -0.0285
 1441ESO    H1a24288   6.405   1.448   4.795  1.4285 -0.8488 -2.0497
 1441ESO    C2a24289   6.592   1.534   4.850 -0.2755  0.2882 -0.1028
 1441ESO    H2a24290   6.667   1.541   4.926  1.7356  1.7070 -0.2386
 1441ESO    H2a24291   6.586   1.631   4.802  0.0565  1.4552 -1.6003
 1441ESO    H2a24292   6.642   1.478   4.773 -1.1693 -0.2451 -0.2393
 1442ESO     O124293   5.854   5.855   4.177  0.4679 -0.0607  0.5239
 1442ESO     O124294   5.968   6.002   4.032 -0.1522  0.0349 -0.5908
 1442ESO     O124295   6.063   5.943   4.242 -0.0882  0.4233 -0.2516
 1442ESO      S24296   5.980   5.902   4.133  0.3789 -0.3195  0.0814
 1442ESO     O224297   6.055   5.782   4.054  0.1834  0.5244 -0.4071
 1442ESO    C1a24298   6.060   5.653   4.123 -0.1478 -0.5077 -0.8619
 1442ESO    H1a24299   6.156   5.654   4.179  1.6374  1.2766  1.2673
 1442ESO    H1a24300   5.972   5.634   4.185  0.2736  1.4110  0.9693
 1442ESO    C2a24301   6.082   5.551   4.010 -0.2052  1.1113 -0.4213
 1442ESO    H2a24302   6.108   5.460   4.056  1.1601  1.4940 -1.5860
 1442ESO    H2a24303   6.149   5.591   3.944 -3.9040 -1.3485  1.6053
 1442ESO    H2a24304   5.992   5.532   3.955  1.5268 -1.6087 -1.2356
 1443ESO     O124305   0.546   3.883   2.310  0.0913  0.1765  0.3819
 1443ESO     O124306   0.533   3.643   2.327 -0.3799 -0.6052  0.0203
 1443ESO     O124307   0.331   3.774   2.326  0.3034  0.3136  0.2310
 1443ESO      S24308   0.469   3.763   2.284  0.5220 -0.1115 -0.4304
 1443ESO     O224309   0.461   3.738   2.130  0.4048 -0.2946  0.0649
 1443ESO    C1a24310   0.412   3.846   2.049  0.1731  1.1222 -0.1580
 1443ESO    H1a24311   0.311   3.867   2.076  1.4106 -0.4542 -3.3656
 1443ESO    H1a24312   0.477   3.925   2.074  1.0424  0.2937  3.4658
 1443ESO    C2a24313   0.415   3.805   1.903  0.2358  0.0893 -0.4476
 1443ESO    H2a24314   0.516   3.783   1.863  0.9124 -0.3140 -1.4913
 1443ESO    H2a24315   0.374   3.891   1.844  1.7289  1.8396 -0.0837
 1443ESO    H2a24316   0.341   3.725   1.881 -2.1629  0.2863  2.2156
 1444ESO     O124317   4.939   5.360   0.308 -0.2285 -0.1765 -0.1959
 1444ESO     O124318   4.802   5.519   0.206  0.3098  0.4623  0.8893
 1444ESO     O124319   5.041   5.527   0.169  0.8566 -0.4527 -0.8572
 1444ESO      S24320   4.925   5.444   0.189 -0.0341 -0.0963 -0.4823
 1444ESO     O224321   4.909   5.347   0.066  0.1194 -0.1459 -0.0784
 1444ESO    C1a24322   5.023   5.268   0.040  0.0210 -0.8084  0.5614
 1444ESO    H1a24323   5.076   5.296  -0.052 -1.9133 -1.5715  1.6974
 1444ESO    H1a24324   5.090   5.265   0.122 -1.1238 -1.4444  0.8269
 1444ESO    C2a24325   4.969   5.135   0.019 -0.0600 -0.3733 -0.2760
 1444ESO    H2a24326   5.045   5.072  -0.029  0.8485  0.4536 -0.0648
 1444ESO    H2a24327   4.888   5.137  -0.046  1.4381  0.9445  3.1447
 1444ESO    H2a24328   4.943   5.088   0.110 -0.9888 -0.5268  1.5256
 1445ESO     O124329   1.481   6.405   4.065  0.1562  0.7679  0.7884
 1445ESO     O124330   1.384   6.519   3.881  0.1801 -0.2815  0.0690
 1445ESO     O124331   1.553   6.625   4.013 -0.1777  0.5748  0.5285
 1445ESO      S24332   1.502   6.499   3.964  0.2400  0.1364  0.0242
 1445ESO     O224333   1.612   6.448   3.867  0.1361 -0.3989  0.2203
 1445ESO    C1a24334   1.606   6.334   3.787  0.3334  0.4529 -0.4733
 1445ESO    H1a24335   1.701   6.293   3.782 -2.5879  2.4653  0.7949
 1445ESO    H1a24336   1.534   6.268   3.836  0.6158  1.2074  0.2940
 1445ESO    C2a24337   1.590   6.372   3.645 -0.6581  0.0064 -0.5584
 1445ESO    H2a24338   1.673   6.426   3.599  0.5920  0.6654  3.2849
 1445ESO    H2a24339   1.496   6.426   3.636 -0.1216  1.4580 -1.1155
 1445ESO    H2a24340   1.583   6.280   3.582 -0.7229  1.0866  0.1597
 1446ESO     O124341   3.610   5.821   5.758 -0.3709  0.0448  0.3632
 1446ESO     O124342   3.808   5.860   5.634  0.2710 -0.0490  0.4189
 1446ESO     O124343   3.609   5.980   5.578 -0.4011 -0.3002  0.2569
 1446ESO      S24344   3.683   5.917   5.680 -0.2821  0.0914  0.2436
 1446ESO     O224345   3.726   6.037   5.787 -0.6214 -0.2778 -0.2548
 1446ESO    C1a24346   3.615   6.098   5.856  0.7666  0.4935 -0.6098
 1446ESO    H1a24347   3.519   6.100   5.800  2.1072  2.2640  0.3585
 1446ESO    H1a24348   3.603   6.041   5.956  1.2409  1.4765  0.1212
 1446ESO    C2a24349   3.655   6.242   5.892 -0.0997  0.2647  0.2946
 1446ESO    H2a24350   3.677   6.293   5.799  2.7661  2.0990  3.9167
 1446ESO    H2a24351   3.743   6.232   5.953 -0.0635  0.4057  0.3992
 1446ESO    H2a24352   3.578   6.290   5.952  2.3366  0.7143 -3.4894
 1447ESO     O124353   5.310   6.238   1.760  1.0275  0.0666  0.1855
 1447ESO     O124354   5.424   6.248   1.548  0.7790 -0.0279  0.2294
 1447ESO     O124355   5.528   6.150   1.735  0.4238  0.2942  0.6707
 1447ESO      S24356   5.404   6.178   1.669  0.1790  0.4391 -0.0630
 1447ESO     O224357   5.357   6.031   1.628  0.1921 -0.8897 -0.2355
 1447ESO    C1a24358   5.316   5.943   1.732  0.5419 -0.0778  0.2230
 1447ESO    H1a24359   5.323   5.996   1.825  0.8214  1.2034  0.3440
 1447ESO    H1a24360   5.206   5.939   1.725 -0.0334  3.8244 -0.7243
 1447ESO    C2a24361   5.398   5.815   1.727 -0.3298  0.3868  0.5793
 1447ESO    H2a24362   5.369   5.741   1.802 -0.0684 -0.9772 -0.4007
 1447ESO    H2a24363   5.504   5.833   1.742  1.1470 -0.1864 -1.3158
 1447ESO    H2a24364   5.403   5.767   1.630 -2.6090  0.2329  0.8188
 1448ESO     O124365   4.313   5.485   1.684  0.4214 -0.3001 -0.1771
 1448ESO     O124366   4.296   5.572   1.906 -0.0948  0.4235 -0.0200
 1448ESO     O124367   4.247   5.338   1.859  0.0246  0.3907 -0.0229
 1448ESO      S24368   4.325   5.456   1.821  0.4620  0.2001  0.1523
 1448ESO     O224369   4.469   5.414   1.844  0.7357  0.1510 -0.8488
 1448ESO    C1a24370   4.575   5.517   1.829 -0.2554 -0.6583 -0.0469
 1448ESO    H1a24371   4.535   5.615   1.808  1.3792 -0.8308 -1.7856
 1448ESO    H1a24372   4.626   5.527   1.926 -1.3744 -0.9378  1.4293
 1448ESO    C2a24373   4.671   5.470   1.721 -0.7323 -0.2123 -0.3236
 1448ESO    H2a24374   4.753   5.549   1.711  1.4490  0.3127  0.5836
 1448ESO    H2a24375   4.612   5.462   1.625  1.0715 -1.2771 -1.0670
 1448ESO    H2a24376   4.707   5.369   1.746 -0.6369  0.0375 -0.7743
 1449ESO     O124377   2.129   6.059   6.740  0.1655 -0.5900 -0.0903
 1449ESO     O124378   1.989   5.856   6.764  0.5254  0.3453 -0.1444
 1449ESO     O124379   2.176   5.861   6.618 -0.0002 -0.2037  0.4461
 1449ESO      S24380   2.117   5.914   6.735 -0.0807 -0.0793  0.0675
 1449ESO     O224381   2.219   5.862   6.854 -0.1484 -0.6037  0.2565
 1449ESO    C1a24382   2.178   5.889   6.987 -0.4935 -0.4075  0.4596
 1449ESO    H1a24383   2.119   5.975   6.993  1.3246 -1.2348 -2.0439
 1449ESO    H1a24384   2.132   5.800   7.018 -0.9530 -1.4003  0.9070
 1449ESO    C2a24385   2.308   5.897   7.071  1.0265  0.4050  0.2731
 1449ESO    H2a24386   2.391   5.937   7.013 -3.4822 -1.0010  3.4308
 1449ESO    H2a24387   2.342   5.796   7.109 -1.7464 -1.6393  4.6593
 1449ESO    H2a24388   2.296   5.962   7.161  2.8164  0.4573 -0.4562
 1450ESO     O124389   0.415   1.485   0.034 -0.0230  0.0536  0.0679
 1450ESO     O124390   0.451   1.675  -0.100  0.7263 -0.8601  0.5344
 1450ESO     O124391   0.596   1.631   0.081 -0.2360  0.0546 -0.4146
 1450ESO      S24392   0.511   1.575  -0.020 -0.0867 -0.2838  0.8992
 1450ESO     O224393   0.610   1.502  -0.118  0.6618 -0.1234  0.4575
 1450ESO    C1a24394   0.555   1.429  -0.227  0.2501  0.4993  0.2735
 1450ESO    H1a24395   0.488   1.347  -0.191 -2.8909 -0.0572 -0.8205
 1450ESO    H1a24396   0.496   1.498  -0.286 -1.8036  1.3734  1.4884
 1450ESO    C2a24397   0.663   1.361  -0.310  0.8989 -0.1273  0.2680
 1450ESO    H2a24398   0.749   1.428  -0.335  0.6459  2.0220  0.5365
 1450ESO    H2a24399   0.623   1.325  -0.403 -0.2646 -0.6283  0.5032
 1450ESO    H2a24400   0.710   1.263  -0.280  0.2634 -2.9317 -0.4926
 1451ESO     O124401   4.642   3.135   0.913 -0.0679  0.3488  0.0417
 1451ESO     O124402   4.546   2.984   0.762 -0.6058  0.5324 -0.1817
 1451ESO     O124403   4.677   2.903   0.947 -0.1249  0.3299  0.0973
 1451ESO      S24404   4.588   3.006   0.903 -0.1616  0.4394 -0.0872
 1451ESO     O224405   4.452   2.998   0.992 -0.1027 -0.5829 -0.2231
 1451ESO    C1a24406   4.372   3.116   1.028 -0.0186 -0.2836 -0.7811
 1451ESO    H1a24407   4.299   3.092   1.108 -1.8598 -1.6609 -1.7864
 1451ESO    H1a24408   4.441   3.186   1.064  0.3021 -0.2866  0.7626
 1451ESO    C2a24409   4.289   3.159   0.907  0.0284 -0.4765 -1.0005
 1451ESO    H2a24410   4.234   3.250   0.920  1.1684  0.0614  2.9220
 1451ESO    H2a24411   4.220   3.080   0.894  1.2144 -0.1808 -0.1279
 1451ESO    H2a24412   4.353   3.170   0.817  2.5502 -1.8931  0.4066
 1452ESO     O124413   1.677   2.935   0.424 -0.0128  0.1769  0.0316
 1452ESO     O124414   1.903   2.889   0.475  0.5387 -0.4418 -0.1915
 1452ESO     O124415   1.852   3.004   0.279  0.8624 -0.0690  0.0545
 1452ESO      S24416   1.811   2.977   0.409 -0.0310 -0.2482  0.1789
 1452ESO     O224417   1.817   3.118   0.486  0.2061 -0.0030  0.0376
 1452ESO    C1a24418   1.942   3.186   0.491 -0.3143  0.5548 -0.2141
 1452ESO    H1a24419   2.027   3.119   0.497  1.3284  1.3166 -1.9858
 1452ESO    H1a24420   1.951   3.251   0.402  0.5185 -0.8715 -0.0427
 1452ESO    C2a24421   1.934   3.271   0.615  0.3875 -1.0709 -0.6364
 1452ESO    H2a24422   2.022   3.333   0.628 -0.0990  0.4852  0.4968
 1452ESO    H2a24423   1.907   3.227   0.711  1.6600 -0.1012  0.7047
 1452ESO    H2a24424   1.861   3.341   0.600  0.9693  0.1290  1.8434
 1453ESO     O124425   1.705   5.298   0.030 -0.5377 -0.5966 -0.2938
 1453ESO     O124426   1.802   5.418   0.211 -0.3121 -0.3642  0.2471
 1453ESO     O124427   1.639   5.530   0.075 -0.2058  0.1653 -0.0727
 1453ESO      S24428   1.685   5.405   0.129 -0.3802 -0.2302  0.0625
 1453ESO     O224429   1.578   5.348   0.219 -0.1819 -0.5753  0.1765
 1453ESO    C1a24430   1.550   5.432   0.342 -0.1345  0.3543  0.3626
 1453ESO    H1a24431   1.636   5.493   0.377  0.1629 -0.1273  1.1534
 1453ESO    H1a24432   1.457   5.490   0.326 -1.2721 -0.8292 -1.8714
 1453ESO    C2a24433   1.528   5.333   0.456  0.5302 -0.4909  0.5156
 1453ESO    H2a24434   1.464   5.249   0.429 -0.8977  1.1334 -0.0527
 1453ESO    H2a24435   1.487   5.372   0.546  1.5342 -1.5540  0.6310
 1453ESO    H2a24436   1.617   5.283   0.476 -1.4719 -1.7435 -3.5830
 1454ESO     O124437   2.272   0.096   2.189 -0.6502 -0.3485  0.4988
 1454ESO     O124438   2.209  -0.097   2.057 -0.2002  0.2292  0.0306
 1454ESO     O124439   2.210   0.120   1.961  0.8406  0.0027  0.5391
 1454ESO      S24440   2.267   0.033   2.057 -0.0443 -0.3033 -0.3137
 1454ESO     O224441   2.414   0.019   2.011 -0.3021  0.0091  0.0906
 1454ESO    C1a24442   2.506  -0.082   2.062 -0.3744  0.0610  0.4348
 1454ESO    H1a24443   2.494  -0.084   2.171 -1.3563 -1.5964  0.8539
 1454ESO    H1a24444   2.473  -0.176   2.010  0.9581 -1.9967  1.3151
 1454ESO    C2a24445   2.645  -0.031   2.018 -0.2708 -0.7792  0.0231
 1454ESO    H2a24446   2.682   0.052   2.086 -0.1003  2.3055  0.3691
 1454ESO    H2a24447   2.646   0.005   1.921 -1.6673 -0.3716 -2.7463
 1454ESO    H2a24448   2.716  -0.112   2.040  0.8184 -0.6374  2.1036
 1455ESO     O124449   0.273   1.722   1.554  0.3007  0.2682 -0.1037
 1455ESO     O124450   0.373   1.896   1.420  0.4077 -0.0259  0.3700
 1455ESO     O124451   0.435   1.866   1.646 -0.2217 -0.4782  0.6308
 1455ESO      S24452   0.386   1.803   1.527 -0.3128 -0.0444 -0.2243
 1455ESO     O224453   0.504   1.705   1.500 -0.2297 -0.0360 -0.0524
 1455ESO    C1a24454   0.542   1.617   1.594  0.5119 -0.3088  0.0861
 1455ESO    H1a24455   0.592   1.671   1.676 -0.1932  0.6103  1.7485
 1455ESO    H1a24456   0.452   1.560   1.635 -0.8807 -3.2600  2.6672
 1455ESO    C2a24457   0.639   1.516   1.528  0.5806  0.5098  0.7609
 1455ESO    H2a24458   0.742   1.556   1.527  1.1647  0.4415  1.5023
 1455ESO    H2a24459   0.607   1.500   1.424 -2.3492 -1.9563 -0.3586
 1455ESO    H2a24460   0.645   1.425   1.590 -0.9482  0.2543  0.1864
 1456ESO     O124461   1.836   0.594   2.505 -0.4302  0.7635  0.7078
 1456ESO     O124462   1.869   0.362   2.556 -0.0237 -0.4954  0.4481
 1456ESO     O124463   2.010   0.526   2.657 -0.0879 -0.3333  0.1275
 1456ESO      S24464   1.881   0.500   2.605  0.3604  0.1643 -0.3146
 1456ESO     O224465   1.777   0.512   2.724 -0.4112 -0.3626 -0.2776
 1456ESO    C1a24466   1.800   0.428   2.840 -0.1375 -0.1058 -0.1067
 1456ESO    H1a24467   1.705   0.382   2.866  0.4228 -2.1560 -0.5461
 1456ESO    H1a24468   1.879   0.356   2.822 -2.3393  0.1862 -0.5053
 1456ESO    C2a24469   1.859   0.518   2.953  0.5023 -0.1972 -0.3556
 1456ESO    H2a24470   1.963   0.531   2.926  0.5900  1.7972  0.8859
 1456ESO    H2a24471   1.848   0.475   3.052 -0.7992 -1.6002  0.2934
 1456ESO    H2a24472   1.811   0.617   2.948 -4.9910 -1.2770  0.7969
 1457ESO     O124473   3.032   5.855   2.104  0.0425  0.2744 -0.1050
 1457ESO     O124474   3.252   5.927   2.160 -0.3044 -0.2265  0.2748
 1457ESO     O124475   3.134   5.767   2.296 -0.6517 -0.1763  0.2744
 1457ESO      S24476   3.154   5.823   2.164  0.2285  0.2012  0.0307
 1457ESO     O224477   3.211   5.715   2.072  0.0184 -0.1211 -0.1511
 1457ESO    C1a24478   3.136   5.591   2.051 -0.6863 -0.7514 -0.0665
 1457ESO    H1a24479   3.100   5.548   2.146  3.4954 -1.4875  2.7526
 1457ESO    H1a24480   3.046   5.614   1.995  3.0066  1.1676 -0.2818
 1457ESO    C2a24481   3.224   5.488   1.976 -0.4457 -0.3317 -0.1185
 1457ESO    H2a24482   3.254   5.532   1.884  0.9186 -2.5917 -1.0600
 1457ESO    H2a24483   3.170   5.395   1.956 -0.4951 -2.7698 -1.2137
 1457ESO    H2a24484   3.314   5.456   2.032 -1.0643 -0.2848 -0.9206
 1458ESO     O124485   4.098   2.169   6.152  0.6077  0.5555 -0.5284
 1458ESO     O124486   4.245   2.250   5.987  0.3559 -0.0564  0.7022
 1458ESO     O124487   4.326   2.196   6.198  0.3794 -0.6625 -0.0658
 1458ESO      S24488   4.232   2.165   6.103  0.0225  0.1352  0.1293
 1458ESO     O224489   4.260   2.015   6.067  0.1106 -0.0826  0.0320
 1458ESO    C1a24490   4.392   1.995   6.011  0.5533 -0.0139  0.1958
 1458ESO    H1a24491   4.393   1.997   5.904  2.4130 -1.2968 -1.1172
 1458ESO    H1a24492   4.464   2.067   6.045 -0.7443  1.0776 -0.5992
 1458ESO    C2a24493   4.423   1.854   6.053  0.3235  0.3347  0.3865
 1458ESO    H2a24494   4.525   1.825   6.010 -0.3229  1.2561  1.0570
 1458ESO    H2a24495   4.353   1.788   6.007  1.3521 -0.0952 -0.0143
 1458ESO    H2a24496   4.413   1.831   6.159  0.1633 -1.5550 -2.6835
 1459ESO     O124497   1.903   2.632   1.141  0.2544  0.4034 -0.7366
 1459ESO     O124498   2.114   2.726   1.085 -0.4432  0.3080 -0.1155
 1459ESO     O124499   2.075   2.492   1.059  0.5444 -0.5209 -0.1429
 1459ESO      S24500   2.014   2.626   1.055  0.1922  0.0757 -0.4608
 1459ESO     O224501   1.966   2.651   0.905  0.1320 -0.3382  0.4306
 1459ESO    C1a24502   1.901   2.535   0.842  0.3804 -0.1418 -0.4344
 1459ESO    H1a24503   1.972   2.456   0.849 -0.4150  1.5281  0.2863
 1459ESO    H1a24504   1.800   2.511   0.885 -0.3661  1.3942 -0.7911
 1459ESO    C2a24505   1.872   2.578   0.698  0.2452 -0.3362 -0.2129
 1459ESO    H2a24506   1.835   2.486   0.646 -2.4016 -2.7308  0.5765
 1459ESO    H2a24507   1.961   2.614   0.646 -0.0344 -1.9923  1.7006
 1459ESO    H2a24508   1.796   2.658   0.684 -0.4781 -1.2254  0.5785
 1460ESO     O124509   2.663   0.893   0.238  0.6246 -0.1089  0.2829
 1460ESO     O124510   2.829   0.788   0.101 -0.4727  0.4107  0.7203
 1460ESO     O124511   2.874   0.828   0.330  0.5519 -0.0244 -0.2357
 1460ESO      S24512   2.770   0.804   0.232  0.5625  0.1963  0.3943
 1460ESO     O224513   2.710   0.663   0.272  0.1637  0.2743  0.3582
 1460ESO    C1a24514   2.613   0.614   0.179 -0.6365 -0.1504 -0.0350
 1460ESO    H1a24515   2.513   0.634   0.212  2.5970 -0.1337 -0.3913
 1460ESO    H1a24516   2.636   0.655   0.086 -0.5930 -1.6762  1.0237
 1460ESO    C2a24517   2.627   0.460   0.168  0.3724 -0.1717 -0.0935
 1460ESO    H2a24518   2.567   0.426   0.087 -0.8704  1.3674  2.4058
 1460ESO    H2a24519   2.598   0.398   0.252  0.1109  0.7129  2.8603
 1460ESO    H2a24520   2.735   0.443   0.146 -0.6644  0.9501  0.3531
 1461ESO     O124521   3.779   1.648   5.219  0.5894  0.0229  0.4349
 1461ESO     O124522   3.814   1.841   5.348  0.0801 -0.2964  0.2223
 1461ESO     O124523   3.963   1.670   5.368 -0.6338 -0.5592  0.1314
 1461ESO      S24524   3.874   1.731   5.280 -0.3620 -0.3946  0.0241
 1461ESO     O224525   3.952   1.794   5.162 -0.4768 -0.2283 -0.5945
 1461ESO    C1a24526   4.042   1.909   5.181  0.4826  0.2870  0.0007
 1461ESO    H1a24527   4.031   1.948   5.272 -1.6558 -1.3081 -0.4235
 1461ESO    H1a24528   4.144   1.863   5.179 -1.8472 -2.7199 -1.7263
 1461ESO    C2a24529   4.019   2.003   5.065  0.6928  0.3875 -0.0665
 1461ESO    H2a24530   3.911   2.018   5.066 -0.9116  0.1773  1.7512
 1461ESO    H2a24531   4.055   1.963   4.968  1.2749  1.1809  0.3170
 1461ESO    H2a24532   4.078   2.095   5.086  0.2954 -0.9752 -0.1292
 1462ESO     O124533   0.383   3.880   4.879 -0.1332  0.1266 -0.4686
 1462ESO     O124534   0.221   3.740   4.972  0.3971  0.1061  0.4605
 1462ESO     O124535   0.340   3.664   4.783 -0.3244 -0.1577  0.1654
 1462ESO      S24536   0.345   3.744   4.903  0.0993 -0.1923 -0.0473
 1462ESO     O224537   0.454   3.677   5.003  0.1845 -0.3436 -0.4822
 1462ESO    C1a24538   0.583   3.663   4.940 -0.5357  0.0660  0.5745
 1462ESO    H1a24539   0.576   3.577   4.876 -1.8579 -1.7702 -2.2014
 1462ESO    H1a24540   0.616   3.742   4.865  3.1685 -0.1943 -1.4080
 1462ESO    C2a24541   0.681   3.642   5.053  0.3620 -0.3517 -0.2097
 1462ESO    H2a24542   0.697   3.734   5.098  2.8365 -0.1829 -2.9584
 1462ESO    H2a24543   0.781   3.606   5.021 -0.8207  0.0799  0.5213
 1462ESO    H2a24544   0.656   3.570   5.130  1.2278 -1.1058 -4.0635
 1463ESO     O124545   3.261   6.226   4.021 -0.2385  0.5899 -0.0741
 1463ESO     O124546   3.119   6.410   3.970 -0.3750 -0.8208 -0.3210
 1463ESO     O124547   3.315   6.368   3.840  0.1659 -0.6683 -0.2837
 1463ESO      S24548   3.211   6.313   3.915 -0.6718  0.0177 -0.2552
 1463ESO     O224549   3.134   6.217   3.812  0.2283 -0.0409 -0.0852
 1463ESO    C1a24550   2.998   6.182   3.836  0.2723 -0.1865 -0.1294
 1463ESO    H1a24551   2.990   6.129   3.931 -2.9088  0.1142  1.0622
 1463ESO    H1a24552   2.941   6.274   3.842 -0.8836 -1.6018 -1.2157
 1463ESO    C2a24553   2.947   6.111   3.716 -0.3860 -0.2542 -0.3587
 1463ESO    H2a24554   2.846   6.112   3.720  3.5579 -0.0235  4.2957
 1463ESO    H2a24555   2.988   6.013   3.709  1.5421  1.0997  0.7092
 1463ESO    H2a24556   2.974   6.165   3.620  2.3643 -2.6480 -1.9149
 1464ESO     O124557   1.899   2.584   6.521  0.1878 -0.3245  0.0308
 1464ESO     O124558   2.140   2.565   6.540 -0.3304 -0.5331 -0.1621
 1464ESO     O124559   2.010   2.498   6.721  0.1919 -0.5575 -0.1974
 1464ESO      S24560   2.009   2.511   6.577 -0.0778  0.0982  0.0661
 1464ESO     O224561   2.011   2.369   6.511 -0.4540 -0.5342 -0.1624
 1464ESO    C1a24562   1.943   2.252   6.575 -0.3002 -0.2631  0.6419
 1464ESO    H1a24563   1.989   2.158   6.547 -0.0073 -0.2750  0.5641
 1464ESO    H1a24564   1.942   2.272   6.684  1.1360  0.1847 -0.3787
 1464ESO    C2a24565   1.793   2.244   6.530 -0.4123 -0.6771 -1.0414
 1464ESO    H2a24566   1.737   2.151   6.565 -0.9261  1.1274  2.1936
 1464ESO    H2a24567   1.787   2.250   6.426  0.6828 -2.8007 -0.4689
 1464ESO    H2a24568   1.733   2.333   6.571 -0.5660  1.2730  0.3755
 1465ESO     O124569   6.461   5.677   6.019  0.0259  0.1950 -0.2171
 1465ESO     O124570   6.582   5.630   5.827  0.4031  0.0457  0.0437
 1465ESO     O124571   6.464   5.451   5.932  0.0280 -0.5823 -0.3268
 1465ESO      S24572   6.470   5.594   5.905  0.3357  0.3511  0.2096
 1465ESO     O224573   6.342   5.634   5.827 -0.7843 -0.0787 -0.2769
 1465ESO    C1a24574   6.311   5.577   5.699 -0.6391  1.0242  0.1953
 1465ESO    H1a24575   6.397   5.553   5.646 -1.0353  0.9227  1.1334
 1465ESO    H1a24576   6.251   5.489   5.709  0.3071 -0.5893 -0.3297
 1465ESO    C2a24577   6.218   5.665   5.609 -1.9235 -0.1231 -0.9633
 1465ESO    H2a24578   6.186   5.621   5.522  0.6030 -0.9732  1.5982
 1465ESO    H2a24579   6.255   5.767   5.586 -2.6803  0.7135 -1.1193
 1465ESO    H2a24580   6.126   5.681   5.665 -0.5259 -0.7001  0.7161
 1466ESO     O124581   0.504   6.022   3.442  0.0604  0.1019 -0.5507
 1466ESO     O124582   0.740   6.045   3.447 -0.3654  0.0632 -0.4970
 1466ESO     O124583   0.630   5.975   3.252 -0.1221  0.0210  0.9095
 1466ESO      S24584   0.620   6.057   3.368  0.2218  0.3843  0.0940
 1466ESO     O224585   0.591   6.202   3.315 -0.0973 -0.1498  0.2634
 1466ESO    C1a24586   0.559   6.297   3.421 -0.0679 -0.4161  0.5296
 1466ESO    H1a24587   0.463   6.278   3.465  1.6545 -1.2405  1.2904
 1466ESO    H1a24588   0.639   6.305   3.497  0.4469 -2.3179 -0.8133
 1466ESO    C2a24589   0.542   6.429   3.351 -0.3384  0.3397  0.1635
 1466ESO    H2a24590   0.555   6.504   3.422 -0.1591 -2.3695 -0.7250
 1466ESO    H2a24591   0.447   6.444   3.311  2.7191  0.0974 -2.3063
 1466ESO    H2a24592   0.619   6.439   3.270 -2.6225 -0.1783  0.7173
 1467ESO     O124593   1.686   6.543   2.505  0.0632 -0.3600  0.3138
 1467ESO     O124594   1.763   6.316   2.534  0.2306 -0.0139  0.2118
 1467ESO     O124595   1.546   6.385   2.604  0.2083 -0.1303  0.1507
 1467ESO      S24596   1.648   6.402   2.510 -0.1388  0.5235  0.1845
 1467ESO     O224597   1.592   6.349   2.367  0.4019 -0.7652  0.0843
 1467ESO    C1a24598   1.461   6.405   2.319 -0.6281 -0.6950  0.2309
 1467ESO    H1a24599   1.420   6.471   2.393  2.5665  0.6380 -0.8203
 1467ESO    H1a24600   1.483   6.462   2.229 -0.3725  0.6429 -0.3497
 1467ESO    C2a24601   1.361   6.294   2.305 -0.0267 -0.0884  0.2639
 1467ESO    H2a24602   1.283   6.336   2.253 -0.2062  1.7341  0.4705
 1467ESO    H2a24603   1.327   6.259   2.402  0.2683  0.7310  1.2255
 1467ESO    H2a24604   1.395   6.204   2.246  0.3555 -1.5344  0.0468
 1468ESO     O124605   4.757   3.842   4.789 -0.6962  0.1288  0.6524
 1468ESO     O124606   4.645   4.060   4.794 -0.3821 -0.4280  0.2046
 1468ESO     O124607   4.719   3.956   4.991 -0.0191 -0.3332  0.0491
 1468ESO      S24608   4.745   3.968   4.852  0.2774 -0.2077  0.6978
 1468ESO     O224609   4.878   4.038   4.851 -0.5460  0.4688  0.0050
 1468ESO    C1a24610   4.921   4.084   4.715 -0.1131  0.1291  0.6152
 1468ESO    H1a24611   4.858   4.033   4.644  0.5227 -0.5624 -1.6031
 1468ESO    H1a24612   4.899   4.194   4.712 -0.4026  1.3481 -1.2818
 1468ESO    C2a24613   5.069   4.059   4.708  0.6804  0.1713 -0.2913
 1468ESO    H2a24614   5.093   3.950   4.696 -1.2583  0.6788 -0.2703
 1468ESO    H2a24615   5.118   4.100   4.802  2.4934 -2.5480 -0.5105
 1468ESO    H2a24616   5.119   4.113   4.627 -2.8463 -0.3592 -1.3275
 1469ESO     O124617   2.521   3.405   2.434  0.1162 -0.2857  0.2451
 1469ESO     O124618   2.692   3.551   2.352 -0.0657  0.1189  0.3538
 1469ESO     O124619   2.675   3.504   2.591 -0.1733  0.4177  0.0663
 1469ESO      S24620   2.653   3.456   2.456  0.1246 -0.1900  0.1888
 1469ESO     O224621   2.746   3.337   2.443 -0.3091 -0.3414 -0.2636
 1469ESO    C1a24622   2.721   3.223   2.535  0.7561  0.2825  0.7133
 1469ESO    H1a24623   2.786   3.226   2.619 -0.3413  2.8932  0.3455
 1469ESO    H1a24624   2.623   3.221   2.576  0.7598 -0.3335 -0.6502
 1469ESO    C2a24625   2.778   3.111   2.455  0.3715  0.3484 -0.1567
 1469ESO    H2a24626   2.873   3.135   2.406 -1.1527  0.3763  0.9588
 1469ESO    H2a24627   2.701   3.085   2.382 -1.1038  1.8229  0.6522
 1469ESO    H2a24628   2.809   3.026   2.516  1.3689 -1.1280 -3.0227
 1470ESO     O124629   4.634   2.611   1.638 -0.1856  0.3806  0.0882
 1470ESO     O124630   4.762   2.784   1.546 -0.3610 -0.0233  0.2542
 1470ESO     O124631   4.614   2.837   1.723 -0.5114  0.2320 -0.1163
 1470ESO      S24632   4.696   2.736   1.660 -0.2321  0.0186 -0.0190
 1470ESO     O224633   4.812   2.696   1.765 -0.2346 -0.1405 -0.2275
 1470ESO    C1a24634   4.898   2.807   1.798  0.8644  0.2855  0.3092
 1470ESO    H1a24635   4.871   2.903   1.739 -0.5215  1.9355  0.3563
 1470ESO    H1a24636   4.894   2.823   1.910  1.6287  0.6873  2.6150
 1470ESO    C2a24637   5.035   2.771   1.757 -0.0529  0.1090 -0.1645
 1470ESO    H2a24638   5.105   2.846   1.778 -0.1901  2.4638  1.0597
 1470ESO    H2a24639   5.032   2.752   1.646 -0.2332  1.4720 -0.2092
 1470ESO    H2a24640   5.059   2.678   1.810 -0.8063 -0.4577 -2.6899
 1471ESO     O124641   3.686   2.311   4.706  0.1983  0.5685  0.7090
 1471ESO     O124642   3.712   2.097   4.612  0.2796  0.4451 -0.1364
 1471ESO     O124643   3.674   2.110   4.843 -0.2730 -0.3765  0.0836
 1471ESO      S24644   3.653   2.170   4.715 -0.3035  0.4539 -0.1052
 1471ESO     O224645   3.495   2.162   4.689 -0.5141  0.3040  0.1658
 1471ESO    C1a24646   3.425   2.224   4.576  0.6415 -0.4716  0.1768
 1471ESO    H1a24647   3.484   2.305   4.540  1.5092 -1.2575  2.3646
 1471ESO    H1a24648   3.418   2.147   4.501 -0.5006 -0.0819 -0.9053
 1471ESO    C2a24649   3.285   2.267   4.624  0.5322 -0.4166 -0.4724
 1471ESO    H2a24650   3.212   2.275   4.543  0.2885 -1.1570 -2.6169
 1471ESO    H2a24651   3.287   2.365   4.674 -0.1223  0.9126  0.2547
 1471ESO    H2a24652   3.244   2.188   4.686 -1.0445  1.6124  0.7738
 1472ESO     O124653   4.658   6.141   1.188 -0.1102 -0.1329  0.7651
 1472ESO     O124654   4.471   6.277   1.195  0.6117 -0.2598  0.2317
 1472ESO     O124655   4.495   6.111   1.011  0.2087 -0.2053 -0.1965
 1472ESO      S24656   4.519   6.148   1.152 -0.2972 -0.0792 -0.6020
 1472ESO     O224657   4.438   6.048   1.240  0.3851 -1.1793 -0.2199
 1472ESO    C1a24658   4.474   5.912   1.221  0.1776  0.1175  0.3018
 1472ESO    H1a24659   4.453   5.881   1.120 -1.2259 -0.8301  1.2320
 1472ESO    H1a24660   4.574   5.893   1.247 -0.9120  1.2649  0.5780
 1472ESO    C2a24661   4.385   5.842   1.318 -0.9065 -0.1191  0.0628
 1472ESO    H2a24662   4.280   5.867   1.310 -3.2947  0.8591 -0.9447
 1472ESO    H2a24663   4.423   5.857   1.421  1.3182 -0.5964  0.3492
 1472ESO    H2a24664   4.385   5.737   1.299 -2.1525  0.4872 -0.6810
 1473ESO     O124665   3.692   1.378   4.665 -0.6609 -0.7094 -0.6217
 1473ESO     O124666   3.624   1.589   4.558  0.2507  0.3291 -0.3209
 1473ESO     O124667   3.815   1.467   4.483 -0.3821  0.2168  0.2426
 1473ESO      S24668   3.687   1.462   4.548  0.2113 -0.0196 -0.1124
 1473ESO     O224669   3.597   1.373   4.451 -0.4895  0.2205 -0.4467
 1473ESO    C1a24670   3.530   1.441   4.337 -0.0778 -0.2608 -0.9609
 1473ESO    H1a24671   3.430   1.466   4.355  1.1004  3.1808 -1.3717
 1473ESO    H1a24672   3.581   1.526   4.302 -3.6064 -2.0093  0.5935
 1473ESO    C2a24673   3.514   1.335   4.225  0.1127  0.0828  0.4682
 1473ESO    H2a24674   3.409   1.310   4.211 -1.1285 -0.3230 -0.7046
 1473ESO    H2a24675   3.564   1.238   4.244  0.1820 -0.7727  0.5888
 1473ESO    H2a24676   3.547   1.369   4.127  1.1905  0.3380 -1.1466
 1474ESO     O124677   4.053   1.275   3.754  0.4156  0.9716 -0.2544
 1474ESO     O124678   3.848   1.165   3.692  0.3967 -0.5119  0.3398
 1474ESO     O124679   4.028   1.031   3.783  0.2164 -0.2458  0.6980
 1474ESO      S24680   3.963   1.163   3.778  0.3385 -0.1704 -0.0999
 1474ESO     O224681   3.914   1.194   3.930  0.2808  0.2845  0.9663
 1474ESO    C1a24682   3.821   1.090   3.983 -0.4410  0.2326  0.2896
 1474ESO    H1a24683   3.732   1.073   3.925 -3.4130 -0.4625 -0.6260
 1474ESO    H1a24684   3.887   0.997   3.996  0.3670 -2.1295 -0.5478
 1474ESO    C2a24685   3.775   1.141   4.110  0.1223  0.2999  0.3832
 1474ESO    H2a24686   3.858   1.155   4.181  0.4077  0.4769  1.3850
 1474ESO    H2a24687   3.705   1.074   4.162 -2.0473  2.0097 -0.4731
 1474ESO    H2a24688   3.715   1.231   4.095 -2.3099 -0.2414 -0.6255
 1475ESO     O124689   1.901   1.100   2.922 -0.5983  0.1021  0.0664
 1475ESO     O124690   1.983   1.321   2.916 -0.0869 -0.1791  0.6342
 1475ESO     O124691   1.927   1.226   3.126  0.9065 -0.4423  0.1073
 1475ESO      S24692   1.973   1.200   2.994  0.3952  0.1853  0.3132
 1475ESO     O224693   2.124   1.139   3.008  0.1525 -0.1196  0.1385
 1475ESO    C1a24694   2.236   1.225   3.057  0.2206  0.5575 -0.1891
 1475ESO    H1a24695   2.325   1.199   3.003 -1.8097  4.7280  0.2339
 1475ESO    H1a24696   2.211   1.324   3.023  2.6896 -0.0229  1.6244
 1475ESO    C2a24697   2.257   1.225   3.210  0.2657 -0.5385  0.4034
 1475ESO    H2a24698   2.156   1.255   3.256 -1.6740  0.2687  0.0039
 1475ESO    H2a24699   2.329   1.303   3.249 -0.6625  0.2252  0.6830
 1475ESO    H2a24700   2.270   1.119   3.245  0.1101  0.6617 -0.8616
 1476ESO     O124701   5.907   2.821   1.494 -0.7016 -0.1148  0.4854
 1476ESO     O124702   6.057   2.660   1.427 -0.2360  0.7005 -0.5527
 1476ESO     O124703   6.109   2.886   1.389 -0.3780  0.3416  0.2317
 1476ESO      S24704   6.045   2.794   1.474 -0.0311  0.0425 -0.1601
 1476ESO     O224705   6.122   2.802   1.615  0.2261 -0.4616  0.3382
 1476ESO    C1a24706   6.120   2.936   1.689  0.2265  0.3265 -0.2856
 1476ESO    H1a24707   6.161   3.011   1.629  0.2636 -2.0517  1.1786
 1476ESO    H1a24708   6.022   2.955   1.717 -1.2916 -2.0399 -2.7210
 1476ESO    C2a24709   6.209   2.937   1.811 -0.6260  0.4547 -0.0329
 1476ESO    H2a24710   6.204   3.033   1.855  1.8023  0.7557 -0.1305
 1476ESO    H2a24711   6.312   2.927   1.785 -1.0427  2.6782 -0.2725
 1476ESO    H2a24712   6.167   2.860   1.873  2.1661  1.3638  0.0861
 1477ESO     O124713   0.326   4.241   0.117 -0.3017 -0.2877 -0.1927
 1477ESO     O124714   0.229   4.140   0.303 -0.5341 -0.2647 -0.5863
 1477ESO     O124715   0.443   4.062   0.238 -0.5056  0.1162 -0.2301
 1477ESO      S24716   0.352   4.175   0.241  0.0001  0.7365 -0.2903
 1477ESO     O224717   0.408   4.294   0.326 -0.4755 -0.1498 -0.4286
 1477ESO    C1a24718   0.549   4.322   0.294  0.3844  0.3514  0.0026
 1477ESO    H1a24719   0.587   4.259   0.217 -1.3794 -1.3353 -0.6865
 1477ESO    H1a24720   0.569   4.424   0.269  4.1332 -0.7986 -1.6225
 1477ESO    C2a24721   0.625   4.294   0.419  0.3429  0.1336  0.1128
 1477ESO    H2a24722   0.641   4.186   0.423  1.4504  0.5563 -1.0763
 1477ESO    H2a24723   0.577   4.337   0.510  0.0616  0.8235  2.8378
 1477ESO    H2a24724   0.728   4.341   0.416  2.3907  3.7003  1.0226
 1478ESO     O124725   6.746   2.774   1.626 -0.0252  0.1960 -0.4021
 1478ESO     O124726   6.591   2.964   1.654 -0.5273 -0.3917  0.6148
 1478ESO     O124727   6.503   2.745   1.621 -0.2816 -0.4026 -0.5190
 1478ESO      S24728   6.616   2.822   1.670  0.0849  0.4878  0.1454
 1478ESO     O224729   6.614   2.806   1.830 -0.4118 -0.6906 -0.5955
 1478ESO    C1a24730   6.728   2.851   1.909  0.3524  0.0750 -0.9045
 1478ESO    H1a24731   6.790   2.917   1.860 -0.6786 -1.7198  1.1099
 1478ESO    H1a24732   6.688   2.902   1.993  1.1856  0.7102 -1.2250
 1478ESO    C2a24733   6.797   2.728   1.965 -0.5478 -0.0735  0.6339
 1478ESO    H2a24734   6.832   2.661   1.881 -0.4140 -0.4623  1.6163
 1478ESO    H2a24735   6.736   2.671   2.039 -0.9124  0.4268  0.0237
 1478ESO    H2a24736   6.882   2.775   2.023 -0.7623 -0.6610  0.3808
 1479ESO     O124737   1.610   0.981   5.424 -0.2519  0.1661  0.2954
 1479ESO     O124738   1.600   0.758   5.332 -0.0627 -0.1452 -0.4741
 1479ESO     O124739   1.397   0.872   5.394 -0.0979  0.2584  0.6321
 1479ESO      S24740   1.533   0.884   5.346  0.0347  0.0476 -0.3143
 1479ESO     O224741   1.536   0.941   5.198  0.3801  0.0441  0.2396
 1479ESO    C1a24742   1.466   1.071   5.183  0.7127 -0.1492 -0.0575
 1479ESO    H1a24743   1.395   1.073   5.099  0.1435 -1.5715  3.2285
 1479ESO    H1a24744   1.408   1.083   5.273 -0.3084 -1.8756  0.2607
 1479ESO    C2a24745   1.580   1.175   5.163 -1.0471 -0.1654 -0.9040
 1479ESO    H2a24746   1.538   1.276   5.176 -2.9109  0.5750  3.3323
 1479ESO    H2a24747   1.627   1.173   5.073 -0.8355 -0.7842 -0.4355
 1479ESO    H2a24748   1.664   1.167   5.237  0.3736  1.9424 -0.7839
 1480ESO     O124749   5.314   3.507   0.211 -0.6950  0.4679 -0.1259
 1480ESO     O124750   5.139   3.556   0.058 -0.2023  0.3109 -0.0128
 1480ESO     O124751   5.131   3.651   0.271 -0.1360  0.1737 -0.0380
 1480ESO      S24752   5.217   3.605   0.169 -0.4363 -0.6387 -0.1670
 1480ESO     O224753   5.300   3.730   0.114 -0.3920  0.2309  0.0711
 1480ESO    C1a24754   5.395   3.697   0.010 -1.1949 -0.2660 -0.0827
 1480ESO    H1a24755   5.490   3.651   0.045  0.5380 -1.5505  0.2733
 1480ESO    H1a24756   5.357   3.626  -0.063 -0.2282 -0.0660 -1.5437
 1480ESO    C2a24757   5.433   3.832  -0.050 -0.3237 -0.5721  0.2974
 1480ESO    H2a24758   5.496   3.814  -0.136  3.1725 -1.3752 -0.9610
 1480ESO    H2a24759   5.493   3.892   0.014  0.6523 -1.4698 -6.5382
 1480ESO    H2a24760   5.350   3.895  -0.071  0.4439  2.0475  1.0642
 1481ESO     O124761   5.422   5.582   4.049 -0.0085 -0.0980 -0.2801
 1481ESO     O124762   5.553   5.387   4.101  0.3805 -0.4227  0.2918
 1481ESO     O124763   5.413   5.396   3.905  0.6781  0.4157 -0.2909
 1481ESO      S24764   5.493   5.473   3.997  0.2179  0.2849 -0.1170
 1481ESO     O224765   5.604   5.525   3.905 -0.2147  0.3858  0.2356
 1481ESO    C1a24766   5.702   5.608   3.961 -0.4743  1.0548 -0.0819
 1481ESO    H1a24767   5.698   5.590   4.069 -1.2629 -1.0803 -1.9799
 1481ESO    H1a24768   5.797   5.577   3.922  2.7666  0.4345  0.7045
 1481ESO    C2a24769   5.668   5.748   3.919 -0.5004  0.0886  0.2123
 1481ESO    H2a24770   5.589   5.787   3.985 -2.0199  0.9760  1.3589
 1481ESO    H2a24771   5.624   5.746   3.820 -0.4787  0.4941 -1.7824
 1481ESO    H2a24772   5.756   5.811   3.914 -1.1748  0.0808  1.9489
 1482ESO     O124773   2.956   4.580   6.390  0.3971  0.6080  0.6101
 1482ESO     O124774   3.167   4.490   6.470 -0.2110  0.7043  0.0808
 1482ESO     O124775   3.070   4.676   6.577 -0.3658  0.2303 -0.5509
 1482ESO      S24776   3.042   4.555   6.503  0.2977  0.0212  0.0523
 1482ESO     O224777   2.960   4.465   6.601 -0.9586  0.0625 -0.0284
 1482ESO    C1a24778   2.920   4.334   6.557 -0.5362  0.2624  0.6733
 1482ESO    H1a24779   2.958   4.307   6.461  0.1100 -0.4277  0.7314
 1482ESO    H1a24780   2.955   4.264   6.629 -1.2719 -0.0544 -0.3887
 1482ESO    C2a24781   2.769   4.327   6.558  0.2174  0.0676  0.0386
 1482ESO    H2a24782   2.713   4.393   6.495  1.4987  2.3344  1.0206
 1482ESO    H2a24783   2.733   4.338   6.660  0.9704 -2.0024 -0.2003
 1482ESO    H2a24784   2.735   4.225   6.517  0.3288 -1.1423 -3.4977
 1483ESO     O124785   5.483   3.805   4.968  0.9088  0.2460 -0.1451
 1483ESO     O124786   5.388   3.614   5.082  0.2299 -0.2416 -0.3017
 1483ESO     O124787   5.533   3.578   4.898 -0.0312 -0.1348 -0.5529
 1483ESO      S24788   5.497   3.666   5.009 -0.0900  0.2907  0.2115
 1483ESO     O224789   5.616   3.670   5.111  0.4124  0.2293  0.7123
 1483ESO    C1a24790   5.680   3.548   5.155 -0.6263 -0.8528  0.4218
 1483ESO    H1a24791   5.606   3.473   5.175 -2.1601  0.9906 -0.1485
 1483ESO    H1a24792   5.756   3.516   5.080  1.8866 -2.4805  1.9752
 1483ESO    C2a24793   5.765   3.592   5.266  0.2002  0.2566 -0.6165
 1483ESO    H2a24794   5.798   3.695   5.246  0.4145  2.9505 -2.3270
 1483ESO    H2a24795   5.855   3.529   5.266 -2.4019  0.3299  0.7120
 1483ESO    H2a24796   5.706   3.601   5.358  0.6454  3.2005 -1.5243
 1484ESO     O124797   1.565   0.150   5.072 -0.3051 -0.2720  0.2962
 1484ESO     O124798   1.470   0.006   5.232  0.1648 -0.0889 -0.5948
 1484ESO     O124799   1.330   0.169   5.112  0.1327 -0.7022  0.7792
 1484ESO      S24800   1.445   0.078   5.110  0.2038  0.1985 -0.0138
 1484ESO     O224801   1.427  -0.030   4.992 -0.0329 -0.3044 -0.2693
 1484ESO    C1a24802   1.322  -0.137   5.000  0.0297  0.0594  0.6708
 1484ESO    H1a24803   1.326  -0.174   5.100  0.8594  2.7601 -1.3993
 1484ESO    H1a24804   1.220  -0.094   4.976  2.3172 -0.7627 -0.3162
 1484ESO    C2a24805   1.363  -0.233   4.883  0.2484  0.7259 -0.8451
 1484ESO    H2a24806   1.348  -0.190   4.781  0.8042 -1.2871  0.5560
 1484ESO    H2a24807   1.300  -0.318   4.893 -2.1711  1.0219  0.3674
 1484ESO    H2a24808   1.466  -0.265   4.890 -2.6532  0.9783  1.2632
 1485ESO     O124809   1.138   3.319   0.013  0.2262  0.3449 -0.1508
 1485ESO     O124810   1.360   3.255  -0.017  0.6374 -0.1309 -0.6221
 1485ESO     O124811   1.263   3.394  -0.173 -0.0069  0.0364  0.2704
 1485ESO      S24812   1.268   3.360  -0.036 -0.3017  0.0003  0.3063
 1485ESO     O224813   1.327   3.486   0.036  0.0026  0.1637  0.1456
 1485ESO    C1a24814   1.344   3.464   0.178  0.1762  0.4310 -0.3087
 1485ESO    H1a24815   1.258   3.414   0.217 -0.0569  0.3992  1.6559
 1485ESO    H1a24816   1.443   3.416   0.190  2.9742  1.2659  1.4771
 1485ESO    C2a24817   1.349   3.596   0.252  0.1897  0.7179 -0.7288
 1485ESO    H2a24818   1.367   3.587   0.362  0.1546  1.5410 -0.7821
 1485ESO    H2a24819   1.248   3.638   0.241 -1.4860  1.9400  0.0055
 1485ESO    H2a24820   1.419   3.677   0.226 -1.7848  1.6205 -0.1303
 1486ESO     O124821   6.084   4.915   5.921  0.1329 -0.6045 -0.2396
 1486ESO     O124822   6.243   4.743   5.893  0.2628 -0.0881  0.3065
 1486ESO     O124823   6.162   4.792   6.110 -0.3055 -0.0029 -0.8587
 1486ESO      S24824   6.136   4.793   5.969  0.3683 -0.0629 -0.3472
 1486ESO     O224825   6.021   4.689   5.953  0.5969 -0.0113  0.4340
 1486ESO    C1a24826   5.958   4.686   5.825  0.2978 -0.4654  0.1783
 1486ESO    H1a24827   5.849   4.685   5.849  1.4870  0.7336  1.6205
 1486ESO    H1a24828   5.990   4.771   5.771  0.7951 -0.9174 -0.6963
 1486ESO    C2a24829   6.000   4.559   5.753  0.3480 -0.3469  0.6349
 1486ESO    H2a24830   5.939   4.538   5.661  0.2031  0.5520  1.0269
 1486ESO    H2a24831   5.956   4.486   5.822  2.2768  2.7068 -2.9156
 1486ESO    H2a24832   6.109   4.560   5.733  2.6857  0.1535  1.0172
 1487ESO     O124833   5.826   6.249   1.888 -0.3393  0.0788 -0.1750
 1487ESO     O124834   5.897   6.032   1.956  0.0203 -0.5283 -0.3474
 1487ESO     O124835   6.058   6.215   1.928 -0.3403  0.5685  0.1076
 1487ESO      S24836   5.925   6.174   1.966 -0.0770  0.2961  0.1845
 1487ESO     O224837   5.903   6.225   2.112  0.0305  0.4105 -0.1549
 1487ESO    C1a24838   5.959   6.150   2.216 -0.3877 -0.3276 -0.1458
 1487ESO    H1a24839   6.032   6.076   2.170  1.9237 -1.8945 -1.5750
 1487ESO    H1a24840   6.018   6.209   2.291 -2.3577 -3.3730 -2.3104
 1487ESO    C2a24841   5.853   6.075   2.282 -0.3636  0.9856  0.7938
 1487ESO    H2a24842   5.776   6.141   2.319  1.5797  0.9202 -1.2717
 1487ESO    H2a24843   5.873   6.003   2.362  1.4898 -0.3292 -0.5199
 1487ESO    H2a24844   5.804   6.019   2.211  0.1089  1.0227 -3.3202
 1488ESO     O124845   4.107   3.331   0.645 -0.2741  0.8175 -0.2858
 1488ESO     O124846   3.924   3.449   0.540 -0.2183 -0.1604  0.5534
 1488ESO     O124847   3.964   3.213   0.489  0.4618  1.3722  0.0803
 1488ESO      S24848   3.975   3.321   0.588  0.1253  0.2624  0.3122
 1488ESO     O224849   3.886   3.275   0.714 -0.7269 -0.7206 -0.1436
 1488ESO    C1a24850   3.746   3.259   0.678 -0.9207 -0.2509  0.0228
 1488ESO    H1a24851   3.704   3.362   0.665  1.5238 -0.8676  1.9019
 1488ESO    H1a24852   3.740   3.197   0.589 -0.0072 -0.3637 -0.8634
 1488ESO    C2a24853   3.677   3.208   0.801 -0.5702 -0.1299  0.1891
 1488ESO    H2a24854   3.723   3.106   0.825 -0.3588  0.8565  0.2113
 1488ESO    H2a24855   3.578   3.199   0.770  2.0001  3.0743 -1.9982
 1488ESO    H2a24856   3.678   3.284   0.879  0.7680  0.3642 -1.7385
 1489ESO     O124857   4.069   6.014   1.949 -0.1539 -0.0071  0.0088
 1489ESO     O124858   3.873   5.901   1.881 -0.2656  0.0616 -0.6444
 1489ESO     O124859   3.901   6.129   1.826  0.0396 -0.4615  0.3999
 1489ESO      S24860   3.967   6.006   1.853  0.3010 -0.0408 -0.1845
 1489ESO     O224861   4.043   5.969   1.714  0.7238  0.8089  0.9118
 1489ESO    C1a24862   4.127   5.856   1.714  0.2028 -0.6596 -0.3996
 1489ESO    H1a24863   4.228   5.890   1.705 -0.5403 -0.5688 -2.1963
 1489ESO    H1a24864   4.114   5.794   1.800  0.7455 -2.7503 -0.6759
 1489ESO    C2a24865   4.084   5.770   1.606 -0.5096 -0.5327 -0.4785
 1489ESO    H2a24866   4.107   5.822   1.509  1.9417 -0.3201  1.0401
 1489ESO    H2a24867   3.977   5.756   1.616 -2.3028  0.6408 -2.7377
 1489ESO    H2a24868   4.145   5.686   1.600 -0.4265  1.5774 -1.0295
 1490ESO     O124869   0.424   1.686   0.756 -0.0848  0.5637  0.0058
 1490ESO     O124870   0.382   1.532   0.930  0.2492 -0.1468 -0.6552
 1490ESO     O124871   0.388   1.447   0.703  0.0243 -0.5873  0.2929
 1490ESO      S24872   0.431   1.546   0.802 -0.1792 -0.0799  0.3110
 1490ESO     O224873   0.583   1.501   0.822 -0.2645  0.0442  0.3183
 1490ESO    C1a24874   0.690   1.494   0.724  0.1801 -0.0033  0.6953
 1490ESO    H1a24875   0.652   1.503   0.621  1.6147 -0.1953 -2.3268
 1490ESO    H1a24876   0.751   1.588   0.736 -2.2595  0.2357  0.7247
 1490ESO    C2a24877   0.770   1.367   0.747 -0.5922 -0.0374  0.4379
 1490ESO    H2a24878   0.782   1.360   0.858  1.6635 -1.2542 -0.5842
 1490ESO    H2a24879   0.869   1.361   0.705  0.4071 -0.4363 -0.3183
 1490ESO    H2a24880   0.708   1.286   0.703  0.2921  0.8265 -0.7235
 1491ESO     O124881   6.693   2.440   2.214  0.8029 -0.4693  0.4870
 1491ESO     O124882   6.483   2.429   2.348  0.2761  0.2344  0.2979
 1491ESO     O124883   6.563   2.236   2.255 -0.2418 -0.7505  0.1521
 1491ESO      S24884   6.603   2.366   2.303 -0.4672  0.0327  0.4986
 1491ESO     O224885   6.691   2.349   2.434  0.3925  0.2440  0.1659
 1491ESO    C1a24886   6.633   2.359   2.564  0.7248 -0.6742 -0.4046
 1491ESO    H1a24887   6.598   2.462   2.579  0.0404 -0.5975  1.3836
 1491ESO    H1a24888   6.541   2.298   2.573  1.8165  1.8616  2.5812
 1491ESO    C2a24889   6.747   2.328   2.658 -0.9616  0.6512  0.0884
 1491ESO    H2a24890   6.789   2.420   2.701  2.0532 -0.2313  0.2127
 1491ESO    H2a24891   6.818   2.255   2.625 -1.4757 -1.8673  0.9690
 1491ESO    H2a24892   6.697   2.273   2.747  0.2602  2.9291 -0.6835
 1492ESO     O124893   0.214   5.326   5.207  0.3131  0.1199  0.2709
 1492ESO     O124894   0.038   5.483   5.220 -0.2305 -0.0203 -0.3169
 1492ESO     O124895  -0.010   5.252   5.194 -0.2698  0.1433  0.2546
 1492ESO      S24896   0.080   5.349   5.248 -0.0169  0.1418  0.2219
 1492ESO     O224897   0.078   5.329   5.403 -0.7965 -0.5306 -0.4713
 1492ESO    C1a24898  -0.047   5.346   5.469 -0.6464  0.1972 -0.6000
 1492ESO    H1a24899  -0.106   5.437   5.448  3.2903  0.8084 -1.2459
 1492ESO    H1a24900  -0.113   5.264   5.434  0.3178 -1.8224  1.9220
 1492ESO    C2a24901  -0.019   5.326   5.614  0.1822 -0.5024  0.0848
 1492ESO    H2a24902  -0.102   5.305   5.678 -1.6460  0.0897  1.2374
 1492ESO    H2a24903   0.020   5.427   5.655 -1.6758  2.9540  2.6106
 1492ESO    H2a24904   0.060   5.251   5.616  1.7928  0.7872  0.3731
 1493ESO     O124905   5.137   0.211   2.848  0.0302 -0.7943 -0.3865
 1493ESO     O124906   5.128   0.387   3.019 -0.2655  0.1054  0.0987
 1493ESO     O124907   5.303   0.388   2.854 -0.5408  0.0842 -0.4724
 1493ESO      S24908   5.172   0.348   2.885 -0.3949 -0.0917  0.1626
 1493ESO     O224909   5.084   0.431   2.787  0.1519 -0.2456 -0.2766
 1493ESO    C1a24910   5.105   0.571   2.780 -0.0874 -0.0281  0.1371
 1493ESO    H1a24911   5.027   0.626   2.829 -0.7940  1.5202  1.3792
 1493ESO    H1a24912   5.195   0.606   2.825 -0.0355  1.4922 -0.4693
 1493ESO    C2a24913   5.103   0.601   2.631 -0.7236 -0.1224 -1.1769
 1493ESO    H2a24914   5.194   0.565   2.570 -0.9607 -1.0140 -0.4503
 1493ESO    H2a24915   5.094   0.703   2.617 -0.0639  0.3506 -2.0107
 1493ESO    H2a24916   5.014   0.559   2.582  0.2003 -1.2025  2.5564
 1494ESO     O124917   2.847   0.324   5.791  0.1360 -0.6946  0.4726
 1494ESO     O124918   2.715   0.219   5.622  0.4857 -0.3974  0.3903
 1494ESO     O124919   2.615   0.272   5.833 -0.2787  0.4351  0.0590
 1494ESO      S24920   2.716   0.303   5.735 -0.0166 -0.0442  0.0299
 1494ESO     O224921   2.673   0.444   5.680  0.2470  0.4814 -0.2457
 1494ESO    C1a24922   2.663   0.555   5.773  0.6287 -0.2854  0.5922
 1494ESO    H1a24923   2.597   0.533   5.863  1.4609 -1.7525 -0.7225
 1494ESO    H1a24924   2.758   0.583   5.805 -0.5587 -0.6829  2.0801
 1494ESO    C2a24925   2.596   0.669   5.698 -0.7743  0.2477  0.1940
 1494ESO    H2a24926   2.654   0.694   5.613 -0.0131  0.3987 -0.6529
 1494ESO    H2a24927   2.589   0.760   5.757  1.5459  0.0898  1.2805
 1494ESO    H2a24928   2.498   0.635   5.661  1.2032 -4.7042 -0.8754
 1495ESO     O124929   4.181   3.505   0.999 -0.1425  0.4074  0.3265
 1495ESO     O124930   4.095   3.558   1.212 -0.1958 -0.3425 -0.5133
 1495ESO     O124931   4.316   3.476   1.196  0.5406  0.4640 -0.1289
 1495ESO      S24932   4.208   3.548   1.130  0.2040 -0.0770  0.2700
 1495ESO     O224933   4.260   3.700   1.106 -0.7598 -0.0498 -0.1083
 1495ESO    C1a24934   4.301   3.777   1.217 -0.4950  0.5578 -0.0451
 1495ESO    H1a24935   4.203   3.816   1.259 -0.3731 -2.3612  0.1643
 1495ESO    H1a24936   4.352   3.717   1.292 -0.2039  3.1081  2.0500
 1495ESO    C2a24937   4.400   3.886   1.158  0.0577  0.2263 -0.3966
 1495ESO    H2a24938   4.336   3.935   1.081 -0.8093 -0.4310 -0.7562
 1495ESO    H2a24939   4.479   3.827   1.115  0.3527 -1.1239  0.0457
 1495ESO    H2a24940   4.447   3.952   1.236 -0.1855  1.2709  1.9914
 1496ESO     O124941   3.133   1.035   2.170  0.1494 -0.2911 -0.3230
 1496ESO     O124942   3.246   1.042   1.961 -0.5845 -0.2759 -0.7194
 1496ESO     O124943   3.032   1.147   1.986  0.0799  0.4074  0.4637
 1496ESO      S24944   3.154   1.113   2.046 -0.3982  0.2931  0.2159
 1496ESO     O224945   3.234   1.239   2.088  0.0394  0.2697 -0.4628
 1496ESO    C1a24946   3.162   1.348   2.138 -1.0775  0.2263 -0.5879
 1496ESO    H1a24947   3.065   1.312   2.181  3.3146 -0.7646  0.5190
 1496ESO    H1a24948   3.219   1.396   2.217 -1.4640  0.8206  1.2138
 1496ESO    C2a24949   3.135   1.447   2.023  0.0637  0.3564 -0.1170
 1496ESO    H2a24950   3.080   1.538   2.047  2.0130  1.6291 -0.5672
 1496ESO    H2a24951   3.107   1.398   1.925 -1.3651 -0.5892 -0.0967
 1496ESO    H2a24952   3.233   1.498   2.001 -0.1942  1.2453  1.0019
 1497ESO     O124953   2.729   6.131   2.872  0.0670  0.0676 -0.1958
 1497ESO     O124954   2.585   5.951   2.831 -0.2624 -0.1784  1.0598
 1497ESO     O124955   2.819   5.936   2.767 -0.4329  0.7856  0.7461
 1497ESO      S24956   2.719   5.993   2.855  0.0156  0.2025  0.1042
 1497ESO     O224957   2.748   5.938   2.995 -0.4223 -0.2009 -0.3370
 1497ESO    C1a24958   2.666   5.956   3.116  0.0770 -0.9631  0.3900
 1497ESO    H1a24959   2.590   6.031   3.093 -1.3513 -0.8099 -0.6965
 1497ESO    H1a24960   2.611   5.858   3.134 -0.7588 -2.0627 -0.7352
 1497ESO    C2a24961   2.737   6.005   3.241  0.1907  0.6961  0.3209
 1497ESO    H2a24962   2.677   6.033   3.329  1.5620 -0.9779  2.0841
 1497ESO    H2a24963   2.802   6.092   3.224  2.0409 -1.1452 -2.4212
 1497ESO    H2a24964   2.806   5.924   3.268 -3.8214 -0.0193 -0.1219
 1498ESO     O124965   0.232   6.807   1.255 -0.0290  0.3056  0.1056
 1498ESO     O124966   0.021   6.820   1.367  0.2929 -0.2789  0.1973
 1498ESO     O124967   0.080   6.626   1.242 -0.0534  0.1910 -0.2223
 1498ESO      S24968   0.126   6.736   1.321 -0.2651 -0.7717  0.4038
 1498ESO     O224969   0.187   6.668   1.452  0.2661  0.0685  0.2441
 1498ESO    C1a24970   0.102   6.595   1.544 -0.3144 -0.3391 -1.1333
 1498ESO    H1a24971   0.000   6.623   1.526 -0.7379  2.2324  2.5955
 1498ESO    H1a24972   0.109   6.490   1.534 -1.2130  0.1129 -1.5768
 1498ESO    C2a24973   0.151   6.636   1.683  0.6471 -0.8027  0.1041
 1498ESO    H2a24974   0.156   6.746   1.688 -0.8388  1.4688 -0.7113
 1498ESO    H2a24975   0.254   6.593   1.693 -0.4235 -1.4157 -1.3984
 1498ESO    H2a24976   0.085   6.584   1.759 -0.0636 -2.1428  1.5161
 1499ESO     O124977   3.158   0.291   1.507  0.4615  0.4332  0.8238
 1499ESO     O124978   3.110   0.313   1.739 -0.0428 -0.2505 -0.1116
 1499ESO     O124979   2.980   0.436   1.577  0.6504  0.4405  0.5046
 1499ESO      S24980   3.059   0.319   1.608  0.4891  0.1932 -0.0976
 1499ESO     O224981   2.955   0.201   1.599  0.5802 -0.6097  0.1546
 1499ESO    C1a24982   2.999   0.069   1.562  0.3186  0.0438  0.1444
 1499ESO    H1a24983   2.978   0.031   1.459  0.3625 -1.2166  1.1615
 1499ESO    H1a24984   3.105   0.068   1.585 -3.1406 -1.1046  0.9980
 1499ESO    C2a24985   2.924  -0.019   1.663  0.2718  0.1965 -0.0270
 1499ESO    H2a24986   2.928  -0.129   1.653 -1.2237  0.8104 -0.3961
 1499ESO    H2a24987   2.817   0.010   1.673  2.6731  0.5594  2.6140
 1499ESO    H2a24988   2.962  -0.001   1.762 -2.2199 -0.8242 -1.5437
 1500ESO     O124989   3.010   5.500   1.063  0.0305  0.2735 -0.3827
 1500ESO     O124990   2.806   5.481   0.936 -0.1714  0.2273  0.2375
 1500ESO     O124991   2.985   5.591   0.844  0.5132  0.0217  0.3622
 1500ESO      S24992   2.949   5.491   0.934  0.0323  0.0988  0.0862
 1500ESO     O224993   2.995   5.348   0.877 -0.4861  0.2198 -0.0878
 1500ESO    C1a24994   2.976   5.231   0.963  0.8715 -0.1822 -0.2467
 1500ESO    H1a24995   3.052   5.232   1.037 -0.1969 -2.1305 -0.0858
 1500ESO    H1a24996   2.880   5.233   1.010  1.0742 -2.6453  2.4322
 1500ESO    C2a24997   2.991   5.111   0.875  0.2640  0.5447  0.5285
 1500ESO    H2a24998   3.081   5.112   0.821 -1.3679  3.1485  0.0121
 1500ESO    H2a24999   2.906   5.099   0.813  1.0095 -1.8530  0.2909
 1500ESO    H2a25000   2.988   5.021   0.940 -0.8644 -1.7804  1.9685
 1501ESO     O125001   4.252   0.696   0.407 -0.4327  0.0144  0.0948
 1501ESO     O125002   4.193   0.490   0.520  0.0407 -0.0348 -0.3337
 1501ESO     O125003   4.411   0.517   0.438 -0.0551 -0.7514  0.3029
 1501ESO      S25004   4.297   0.589   0.494 -0.0434 -0.2282  0.4270
 1501ESO     O225005   4.350   0.653   0.626 -0.0175  0.3571 -0.2337
 1501ESO    C1a25006   4.272   0.718   0.724  0.2710  0.8623 -0.2782
 1501ESO    H1a25007   4.175   0.668   0.724  2.0308  1.3071 -0.4542
 1501ESO    H1a25008   4.321   0.719   0.818 -0.9904 -1.5940 -1.8452
 1501ESO    C2a25009   4.256   0.865   0.696  0.3137  0.9757  0.1904
 1501ESO    H2a25010   4.345   0.899   0.637  0.2302  0.3437  0.2710
 1501ESO    H2a25011   4.244   0.923   0.790 -0.0006  0.9290 -0.1156
 1501ESO    H2a25012   4.174   0.889   0.626  0.1913  2.5266 -0.9060
 1502ESO     O125013   0.264   6.335   2.596 -0.2479 -0.3081  0.7147
 1502ESO     O125014   0.171   6.184   2.745 -0.9922 -0.6125 -0.2393
 1502ESO     O125015   0.361   6.117   2.629 -0.6289  0.0190  0.0442
 1502ESO      S25016   0.290   6.227   2.685  0.4731  0.1621  0.2800
 1502ESO     O225017   0.381   6.283   2.802  0.6414 -0.3514  0.1766
 1502ESO    C1a25018   0.352   6.415   2.857 -0.6909  0.0243  0.0691
 1502ESO    H1a25019   0.341   6.490   2.781 -0.9987 -3.7376 -2.7159
 1502ESO    H1a25020   0.260   6.415   2.908  1.2900  0.5996 -1.3100
 1502ESO    C2a25021   0.472   6.460   2.945 -0.6222  0.3301 -0.5080
 1502ESO    H2a25022   0.564   6.456   2.883 -0.3123 -0.3887  0.9134
 1502ESO    H2a25023   0.488   6.403   3.034  0.8235  1.1711  4.9659
 1502ESO    H2a25024   0.442   6.561   2.972  3.5761 -0.0948 -0.7771
 1503ESO     O125025   4.292   0.150   3.268 -0.5914 -0.2687  0.1777
 1503ESO     O125026   4.263   0.373   3.334 -0.0330 -0.7861 -0.5321
 1503ESO     O125027   4.483   0.291   3.321 -0.2890 -0.3850 -0.2786
 1503ESO      S25028   4.349   0.285   3.267 -0.1705 -0.1164  0.2021
 1503ESO     O225029   4.353   0.330   3.107  0.0386 -0.2843  0.6973
 1503ESO    C1a25030   4.428   0.245   3.018 -0.7990  0.2680 -0.0056
 1503ESO    H1a25031   4.539   0.254   3.036  1.5576  2.1873  1.3527
 1503ESO    H1a25032   4.385   0.146   3.021 -2.3936 -2.0958  0.7797
 1503ESO    C2a25033   4.414   0.303   2.885 -0.0144  0.2263  0.4313
 1503ESO    H2a25034   4.479   0.388   2.870 -2.8636  2.9096  2.2681
 1503ESO    H2a25035   4.308   0.327   2.864  1.9450 -0.6684 -1.4017
 1503ESO    H2a25036   4.432   0.222   2.813  0.5002 -0.0221  1.1732
 1504ESO     O125037   5.565   3.074   6.425  0.0380  0.0185  0.7351
 1504ESO     O125038   5.753   2.932   6.403 -0.0746 -0.2481 -0.1034
 1504ESO     O125039   5.776   3.170   6.380 -0.1984 -0.5134  0.5425
 1504ESO      S25040   5.705   3.062   6.446  0.1148  0.0457 -0.0144
 1504ESO     O225041   5.728   3.072   6.603  0.5559 -0.1602  0.4868
 1504ESO    C1a25042   5.701   3.190   6.685 -0.2171  0.0630  0.0413
 1504ESO    H1a25043   5.775   3.270   6.663  0.7051 -1.2909 -0.8583
 1504ESO    H1a25044   5.596   3.221   6.678  0.0952  0.0560 -0.0995
 1504ESO    C2a25045   5.724   3.140   6.831 -0.1574 -0.2950  0.4721
 1504ESO    H2a25046   5.642   3.089   6.866 -0.1459 -1.5994  1.3712
 1504ESO    H2a25047   5.738   3.230   6.891  0.8134 -0.0599 -0.5538
 1504ESO    H2a25048   5.814   3.089   6.846 -0.0244  0.0235  1.6670
 1505ESO     O125049   4.538   4.516   2.209 -0.1313  0.0653 -0.0805
 1505ESO     O125050   4.539   4.746   2.200 -0.1060 -0.1613  0.4652
 1505ESO     O125051   4.739   4.630   2.144  0.1077 -0.3725  0.0056
 1505ESO      S25052   4.595   4.627   2.145  0.0669 -0.1162  0.2341
 1505ESO     O225053   4.547   4.628   1.996  0.7761  0.3572 -0.3202
 1505ESO    C1a25054   4.406   4.666   1.966  0.1238  0.1388 -0.0277
 1505ESO    H1a25055   4.349   4.609   2.038  0.1951 -1.1391 -2.1300
 1505ESO    H1a25056   4.389   4.767   2.004 -0.8155  2.3136  0.1452
 1505ESO    C2a25057   4.371   4.645   1.819 -0.0236  0.1354 -0.7144
 1505ESO    H2a25058   4.264   4.685   1.809 -0.3554  1.6603 -0.6509
 1505ESO    H2a25059   4.377   4.535   1.800  0.1766 -1.0593 -0.0181
 1505ESO    H2a25060   4.439   4.702   1.764 -0.4379 -2.0170  0.4062
 1506ESO     O125061   5.414   3.211   5.548  0.0102  0.2378 -0.1407
 1506ESO     O125062   5.587   3.345   5.629 -0.3293  0.5442  0.4204
 1506ESO     O125063   5.466   3.409   5.435 -0.4168 -0.3487  0.1272
 1506ESO      S25064   5.463   3.344   5.562 -0.5799 -0.4071 -0.1572
 1506ESO     O225065   5.358   3.416   5.655  0.1301 -0.4999  0.0940
 1506ESO    C1a25066   5.324   3.361   5.780  0.4255 -0.3336  0.4814
 1506ESO    H1a25067   5.233   3.309   5.781  2.1520  1.4715 -1.6601
 1506ESO    H1a25068   5.404   3.296   5.818  1.7725 -1.8084  2.2884
 1506ESO    C2a25069   5.308   3.477   5.879 -0.3524 -0.5031  0.2613
 1506ESO    H2a25070   5.388   3.556   5.854  1.3496  2.1419  0.8130
 1506ESO    H2a25071   5.322   3.455   5.987  0.0341  0.7182  1.4950
 1506ESO    H2a25072   5.217   3.516   5.852  0.5192  0.9848 -1.0570
 1507ESO     O125073   4.464   5.329   6.201  0.2226  0.0173  0.0508
 1507ESO     O125074   4.608   5.306   6.005 -0.3470  0.5600  0.3907
 1507ESO     O125075   4.672   5.451   6.182 -0.7022 -0.3577  0.5233
 1507ESO      S25076   4.598   5.337   6.146 -0.2477 -0.1599  0.0804
 1507ESO     O225077   4.674   5.226   6.233  0.4751 -0.4354  0.0432
 1507ESO    C1a25078   4.645   5.087   6.207  0.1168  0.1853  0.4449
 1507ESO    H1a25079   4.537   5.082   6.182 -0.5357 -0.8195 -3.2470
 1507ESO    H1a25080   4.711   5.051   6.128 -0.6478  1.0152  1.0986
 1507ESO    C2a25081   4.672   5.013   6.335  0.0843 -0.2108  0.2657
 1507ESO    H2a25082   4.624   5.062   6.415  0.5879  2.8346  0.3988
 1507ESO    H2a25083   4.776   5.009   6.349 -0.6751  1.8962  1.6691
 1507ESO    H2a25084   4.642   4.911   6.334  1.2603  1.9519  0.8087
 1508ESO     O125085   6.292   6.464   0.824  0.2571  0.0793  0.1205
 1508ESO     O125086   6.091   6.430   0.955  0.0144 -0.2602 -0.2058
 1508ESO     O125087   6.258   6.254   0.940  0.3224  0.0744  0.1480
 1508ESO      S25088   6.233   6.396   0.934  0.2136 -0.5081  0.0197
 1508ESO     O225089   6.303   6.449   1.064  0.0429 -0.5470 -0.0580
 1508ESO    C1a25090   6.445   6.416   1.083  0.2612  0.6181  0.7907
 1508ESO    H1a25091   6.470   6.339   1.010 -1.6196 -2.9139  1.0375
 1508ESO    H1a25092   6.510   6.504   1.069  1.2908 -0.7613  1.1038
 1508ESO    C2a25093   6.457   6.361   1.228 -0.0264 -0.2309  0.0365
 1508ESO    H2a25094   6.565   6.369   1.256 -0.2671  1.4371  0.4495
 1508ESO    H2a25095   6.441   6.260   1.242  0.6555  0.9186  0.1550
 1508ESO    H2a25096   6.407   6.431   1.300  0.7072  1.6124  2.9785
 1509ESO     O125097   5.731   1.633   6.638 -0.2899 -0.3219  0.2557
 1509ESO     O125098   5.790   1.806   6.482  0.7286  0.5205  0.0750
 1509ESO     O125099   5.592   1.680   6.446 -0.0663 -0.4849  0.1983
 1509ESO      S25100   5.685   1.736   6.546  0.3185  0.2650 -0.1081
 1509ESO     O225101   5.603   1.835   6.631  0.1638  0.0312  0.1421
 1509ESO    C1a25102   5.492   1.781   6.711 -0.2885  0.1577 -0.7125
 1509ESO    H1a25103   5.438   1.702   6.651  1.4225 -1.5156 -0.1887
 1509ESO    H1a25104   5.541   1.741   6.806 -0.5631 -0.5985  2.1031
 1509ESO    C2a25105   5.408   1.906   6.739  0.0700  0.0611 -0.2374
 1509ESO    H2a25106   5.368   1.927   6.642  0.1872  1.9047  1.3482
 1509ESO    H2a25107   5.467   1.987   6.766 -1.0826 -0.3622  4.1220
 1509ESO    H2a25108   5.324   1.890   6.806 -2.3409 -1.7630  1.9459
 1510ESO     O125109   4.598   6.111   2.123  0.2809 -0.3581  0.5599
 1510ESO     O125110   4.368   6.160   2.080  0.0703 -0.4087 -0.5178
 1510ESO     O125111   4.542   6.303   1.993 -0.9303 -0.3692  1.1505
 1510ESO      S25112   4.504   6.169   2.028  0.0800  0.3920  0.0278
 1510ESO     O225113   4.513   6.079   1.893  0.2634 -0.2791 -0.1180
 1510ESO    C1a25114   4.453   5.952   1.896 -0.5047 -0.2295  0.3388
 1510ESO    H1a25115   4.499   5.889   1.966 -1.9623 -1.3385 -0.6576
 1510ESO    H1a25116   4.348   5.953   1.921 -0.3827 -0.4968  1.7316
 1510ESO    C2a25117   4.456   5.884   1.763 -0.2593  0.4182 -0.6944
 1510ESO    H2a25118   4.406   5.943   1.688  0.1560 -2.9887 -0.3054
 1510ESO    H2a25119   4.402   5.788   1.773 -2.1033  1.5083  0.2972
 1510ESO    H2a25120   4.559   5.867   1.732  0.7624 -2.2391  0.1657
 1511ESO     O125121   6.236   0.148   5.028 -0.5472 -0.7539  0.3197
 1511ESO     O125122   6.241  -0.085   5.099 -0.7381  0.3235  0.0355
 1511ESO     O125123   6.188   0.096   5.247 -0.5047  0.1841  0.1190
 1511ESO      S25124   6.182   0.046   5.115 -0.3186  0.1579  0.0244
 1511ESO     O225125   6.030   0.027   5.082 -0.1770 -0.2781 -0.3040
 1511ESO    C1a25126   5.999  -0.037   4.952 -0.0405  0.4156 -0.8316
 1511ESO    H1a25127   6.084  -0.039   4.876  2.3936 -0.5285  0.8633
 1511ESO    H1a25128   5.974  -0.140   4.968  0.1036 -0.5967 -1.1788
 1511ESO    C2a25129   5.886   0.054   4.894 -0.4899  0.0021  0.0336
 1511ESO    H2a25130   5.905   0.153   4.919 -0.1368  0.0234  0.4941
 1511ESO    H2a25131   5.794   0.026   4.941  2.4381 -0.8485 -1.4023
 1511ESO    H2a25132   5.877   0.048   4.780  0.9925  0.0862 -2.0771
 1512ESO     O125133   1.275   5.110   4.750  0.3196  0.0380 -0.2344
 1512ESO     O125134   1.189   4.885   4.773  0.0187  0.4056  0.5425
 1512ESO     O125135   1.363   4.962   4.921  0.2401 -0.1078  0.4015
 1512ESO      S25136   1.251   4.996   4.838 -0.0819  0.1655  0.1617
 1512ESO     O225137   1.136   5.037   4.935  0.6283 -0.2317  0.3019
 1512ESO    C1a25138   1.098   4.951   5.043  0.3547 -0.1321  0.7109
 1512ESO    H1a25139   1.074   4.853   4.996  1.6494 -2.7181 -0.6922
 1512ESO    H1a25140   1.182   4.948   5.115  0.3592 -0.6172  1.5489
 1512ESO    C2a25141   0.966   5.014   5.089  0.2043 -0.6082 -0.2285
 1512ESO    H2a25142   0.980   5.113   5.125  1.6324 -0.6105  0.6086
 1512ESO    H2a25143   0.924   4.968   5.177  1.7550  1.3612  0.5957
 1512ESO    H2a25144   0.890   5.020   5.008 -1.5791  0.2799  4.4399
 1513ESO     O125145   2.510   0.790   6.505 -0.2608  0.2704  0.6350
 1513ESO     O125146   2.523   0.868   6.286  0.3678  0.3859 -0.2842
 1513ESO     O125147   2.388   0.681   6.338  0.7345 -0.1060 -0.4461
 1513ESO      S25148   2.440   0.806   6.382 -0.1488 -0.2957 -0.1761
 1513ESO     O225149   2.318   0.905   6.405  0.3692  0.6550  0.0413
 1513ESO    C1a25150   2.329   0.993   6.520  0.2870 -0.3967 -0.3052
 1513ESO    H1a25151   2.291   0.950   6.612 -0.4756  0.2568 -1.4504
 1513ESO    H1a25152   2.435   1.023   6.526  0.6069  0.2258  1.5144
 1513ESO    C2a25153   2.251   1.112   6.494 -0.3034 -0.7150  1.2727
 1513ESO    H2a25154   2.219   1.153   6.594  2.9555 -0.2239  4.4430
 1513ESO    H2a25155   2.169   1.083   6.438  0.2402 -0.0036  1.3213
 1513ESO    H2a25156   2.302   1.185   6.430  0.4803  0.7271 -0.6862
 1514ESO     O125157   3.986   6.626   0.873  0.0873 -0.0689  0.0631
 1514ESO     O125158   4.115   6.455   0.982 -0.7230  0.2729  0.1100
 1514ESO     O125159   3.880   6.416   0.957 -0.1406  0.7074 -0.0117
 1514ESO      S25160   3.997   6.482   0.901  0.1151 -0.3804  0.1932
 1514ESO     O225161   4.020   6.414   0.757  0.0113  0.4391  0.2790
 1514ESO    C1a25162   4.156   6.414   0.703  0.2543 -0.2565 -0.4508
 1514ESO    H1a25163   4.221   6.404   0.787  0.1501 -1.6098 -0.7618
 1514ESO    H1a25164   4.175   6.323   0.641 -1.4152  1.7034  0.5290
 1514ESO    C2a25165   4.177   6.541   0.610  0.2382  0.1151 -0.1528
 1514ESO    H2a25166   4.112   6.527   0.515  2.4091  2.4530 -0.8548
 1514ESO    H2a25167   4.281   6.541   0.579 -1.0253  2.9735 -0.2466
 1514ESO    H2a25168   4.168   6.638   0.664  2.5183 -0.3111  1.0690
 1515ESO     O125169   3.978   2.805   6.535 -0.9370  0.1170 -0.0139
 1515ESO     O125170   4.143   2.637   6.550  0.8313 -0.3318 -0.3615
 1515ESO     O125171   4.099   2.778   6.733 -0.1091 -0.0922  0.0861
 1515ESO      S25172   4.044   2.706   6.620  0.3005 -0.2970  0.0746
 1515ESO     O225173   3.938   2.593   6.670  0.3409 -0.1254 -0.0792
 1515ESO    C1a25174   3.829   2.561   6.575 -0.0452 -0.1017  0.1954
 1515ESO    H1a25175   3.771   2.652   6.557 -0.9928  0.9149  0.6876
 1515ESO    H1a25176   3.876   2.534   6.485 -2.5160 -0.5784 -1.4536
 1515ESO    C2a25177   3.753   2.447   6.635  0.1477 -0.5019 -0.4772
 1515ESO    H2a25178   3.692   2.468   6.724 -0.8581 -2.3532  0.0823
 1515ESO    H2a25179   3.832   2.368   6.652  2.1786 -1.6649 -0.3338
 1515ESO    H2a25180   3.690   2.414   6.556  0.4114  2.7340 -0.5035
 1516ESO     O125181   2.036   0.618   3.975 -0.5546 -0.5548  0.2985
 1516ESO     O125182   2.223   0.769   3.997  0.3593 -0.1992 -0.0754
 1516ESO     O125183   2.171   0.670   3.785 -0.1471 -0.5320 -0.5013
 1516ESO      S25184   2.119   0.718   3.907 -0.1858 -0.5115  0.2009
 1516ESO     O225185   2.016   0.834   3.872 -0.3581 -0.0654  0.0267
 1516ESO    C1a25186   1.921   0.822   3.763  0.6270 -0.5019  0.1638
 1516ESO    H1a25187   1.961   0.756   3.686  0.5133  0.1607  2.2771
 1516ESO    H1a25188   1.826   0.783   3.799  1.9546 -0.9894 -2.9723
 1516ESO    C2a25189   1.910   0.966   3.723 -0.3847  0.3578 -0.3269
 1516ESO    H2a25190   1.892   1.035   3.805  0.1060  0.9240 -1.5700
 1516ESO    H2a25191   1.838   0.980   3.643  0.5581  1.2550  0.0569
 1516ESO    H2a25192   2.014   0.993   3.709  1.3382 -1.0170  0.9231
 1517ESO     O125193   3.955   0.449   1.232  0.2051  0.9564 -0.2267
 1517ESO     O125194   3.928   0.640   1.102  0.1015  0.2197  0.5754
 1517ESO     O125195   3.890   0.420   1.006  0.0167  0.2095 -0.1077
 1517ESO      S25196   3.884   0.505   1.125 -0.1519 -0.0071  0.3712
 1517ESO     O225197   3.733   0.518   1.172  0.3429 -0.7884 -0.1271
 1517ESO    C1a25198   3.663   0.405   1.229  0.1356 -0.0960 -0.2204
 1517ESO    H1a25199   3.658   0.325   1.157  1.9913 -0.5464 -1.1188
 1517ESO    H1a25200   3.711   0.366   1.314 -3.8483 -0.0725 -0.0990
 1517ESO    C2a25201   3.519   0.439   1.266 -0.2099  0.0362 -0.0622
 1517ESO    H2a25202   3.469   0.359   1.314  0.0422 -1.5554 -0.5220
 1517ESO    H2a25203   3.472   0.473   1.168  0.3557 -2.9694 -2.1782
 1517ESO    H2a25204   3.515   0.522   1.334  0.5996 -0.3702  1.9033
 1518ESO     O125205   2.938   5.331   2.160 -0.4972  0.1399  0.1967
 1518ESO     O125206   2.904   5.136   2.299 -0.4874  0.1709 -0.0164
 1518ESO     O125207   2.865   5.359   2.385 -0.3037  0.0242  0.1071
 1518ESO      S25208   2.864   5.271   2.267  0.1980 -0.2213 -0.2582
 1518ESO     O225209   2.710   5.268   2.231  0.1069  0.3093 -0.1797
 1518ESO    C1a25210   2.651   5.392   2.187  0.5683  0.3514  0.0656
 1518ESO    H1a25211   2.632   5.461   2.258  2.1292 -0.6740  0.2639
 1518ESO    H1a25212   2.722   5.433   2.112  3.7298 -3.0297 -0.2043
 1518ESO    C2a25213   2.527   5.351   2.110  0.0687 -0.1654  0.0599
 1518ESO    H2a25214   2.485   5.452   2.077  1.4312 -1.2989  0.6958
 1518ESO    H2a25215   2.449   5.301   2.173  0.0772  0.4103  1.9265
 1518ESO    H2a25216   2.548   5.291   2.025 -1.7963 -0.2829  1.5311
 1519ESO     O125217   2.223   2.874   2.249 -0.6607  0.4610  0.3640
 1519ESO     O125218   2.146   3.095   2.293  0.9158 -0.2204  0.7726
 1519ESO     O125219   2.383   3.045   2.316  0.0880 -0.4721 -0.1334
 1519ESO      S25220   2.255   3.015   2.251 -0.0418  0.2357  0.0322
 1519ESO     O225221   2.291   3.057   2.104 -0.0321 -0.5972  0.0455
 1519ESO    C1a25222   2.212   3.030   1.984 -0.1186  0.2472 -0.3835
 1519ESO    H1a25223   2.109   3.044   2.004  1.1444 -1.0293 -1.0588
 1519ESO    H1a25224   2.237   3.098   1.902  2.4756 -0.1865 -0.8842
 1519ESO    C2a25225   2.248   2.897   1.914 -0.4077  0.3946 -0.3539
 1519ESO    H2a25226   2.219   2.814   1.976 -3.0980  0.0764 -0.3059
 1519ESO    H2a25227   2.358   2.894   1.894 -1.6177  1.1429  0.3693
 1519ESO    H2a25228   2.190   2.898   1.821 -1.6341  0.0214 -1.6484
 1520ESO     O125229   4.550   1.007   4.684  0.7460  0.1282  0.4021
 1520ESO     O125230   4.526   0.844   4.511 -0.1857 -0.3621  0.3227
 1520ESO     O125231   4.333   0.975   4.581 -0.3229 -0.3138  0.1778
 1520ESO      S25232   4.477   0.971   4.565  0.0189  0.1868  0.5263
 1520ESO     O225233   4.518   1.086   4.457  0.4083 -0.1576  0.4626
 1520ESO    C1a25234   4.664   1.107   4.459  0.0460  0.6053 -0.0690
 1520ESO    H1a25235   4.670   1.203   4.514 -0.3687 -1.6437  0.4545
 1520ESO    H1a25236   4.712   1.013   4.509  0.3303 -1.9028  2.7958
 1520ESO    C2a25237   4.705   1.103   4.313 -0.5722 -0.7730  0.1050
 1520ESO    H2a25238   4.809   1.134   4.292 -1.2294  1.3739 -0.0043
 1520ESO    H2a25239   4.650   1.171   4.254 -2.2715 -1.2684 -0.1888
 1520ESO    H2a25240   4.697   1.003   4.269 -0.6724 -0.1830  0.5709
 1521ESO     O125241   5.176   5.642   3.230  0.2030  0.8361 -0.6720
 1521ESO     O125242   4.956   5.705   3.286  0.2420  0.0633  0.0619
 1521ESO     O125243   5.129   5.871   3.290 -0.3808  0.5956  0.8724
 1521ESO      S25244   5.079   5.748   3.231  0.0633  0.0723 -0.1271
 1521ESO     O225245   5.053   5.783   3.082  0.0288  0.1911  0.2204
 1521ESO    C1a25246   4.950   5.885   3.056 -0.2101 -0.0752  0.5665
 1521ESO    H1a25247   4.852   5.853   3.100  0.9793  3.4540 -0.8746
 1521ESO    H1a25248   4.982   5.983   3.094  2.3067  1.8636  2.4181
 1521ESO    C2a25249   4.926   5.887   2.911  0.3671 -0.0682 -0.1398
 1521ESO    H2a25250   5.018   5.915   2.859 -0.6579 -0.0703 -0.9278
 1521ESO    H2a25251   4.838   5.939   2.881 -0.0995 -0.4296 -0.2813
 1521ESO    H2a25252   4.913   5.788   2.882  1.4251  0.8045  0.4454
 1522ESO     O125253   0.921   2.336   1.253 -0.4452 -0.2309  0.3305
 1522ESO     O125254   1.027   2.538   1.174 -0.2063 -0.2981  1.0622
 1522ESO     O125255   1.055   2.466   1.399  0.0746  0.3993 -0.6347
 1522ESO      S25256   1.031   2.425   1.264  0.0248 -0.0795 -0.3987
 1522ESO     O225257   1.160   2.341   1.223  1.0512 -0.6444 -0.5138
 1522ESO    C1a25258   1.192   2.217   1.291 -0.3149  0.1680 -0.2705
 1522ESO    H1a25259   1.099   2.181   1.355 -2.4467 -0.6545  0.3585
 1522ESO    H1a25260   1.215   2.145   1.216 -0.5988  0.3414  1.0695
 1522ESO    C2a25261   1.316   2.244   1.373 -0.7868 -0.2544 -0.0428
 1522ESO    H2a25262   1.366   2.156   1.422  2.6181 -0.5661 -0.8817
 1522ESO    H2a25263   1.298   2.305   1.451 -0.0537 -1.7185 -0.0830
 1522ESO    H2a25264   1.388   2.288   1.312  1.9848 -1.7041  3.2595
 1523ESO     O125265   1.008   0.465   0.912 -0.2082 -0.1901 -0.1312
 1523ESO     O125266   0.893   0.423   1.121 -0.7134 -0.0487 -0.0426
 1523ESO     O125267   0.852   0.291   0.925  0.4518  0.0290 -0.4028
 1523ESO      S25268   0.945   0.366   0.999  0.2638  0.1656 -0.2862
 1523ESO     O225269   1.060   0.262   1.055  0.2997  0.5959  0.4508
 1523ESO    C1a25270   1.019   0.170   1.159 -0.2336  0.3903  0.0472
 1523ESO    H1a25271   1.007   0.219   1.257  0.8963  1.8656  0.2090
 1523ESO    H1a25272   0.929   0.111   1.133  0.8872  0.7581 -0.1220
 1523ESO    C2a25273   1.140   0.076   1.159 -0.1656 -0.3950  0.5451
 1523ESO    H2a25274   1.143   0.019   1.064  0.7407 -2.9037 -0.9878
 1523ESO    H2a25275   1.116   0.005   1.241 -0.7820  0.1419  0.2266
 1523ESO    H2a25276   1.232   0.129   1.180 -0.4450  0.7606 -0.9210
 1524ESO     O125277   0.412   3.060   6.072 -0.3126 -0.1423  0.0830
 1524ESO     O125278   0.325   3.041   5.853  0.4002  0.3028 -0.1479
 1524ESO     O125279   0.343   3.255   5.960  0.5102  0.0990  0.2941
 1524ESO      S25280   0.398   3.124   5.946 -0.0355 -0.0682 -0.4769
 1524ESO     O225281   0.539   3.145   5.890  0.4039 -0.1428  0.1497
 1524ESO    C1a25282   0.629   3.219   5.972 -0.9857  0.3046  0.4579
 1524ESO    H1a25283   0.580   3.316   5.993 -1.2432 -0.3805  0.7501
 1524ESO    H1a25284   0.655   3.179   6.071  2.4736  0.3467  1.4363
 1524ESO    C2a25285   0.764   3.255   5.909 -0.4425 -0.1164  0.7734
 1524ESO    H2a25286   0.805   3.336   5.965  0.2300  1.2295  3.0338
 1524ESO    H2a25287   0.727   3.290   5.809 -1.1114  0.7624  1.3078
 1524ESO    H2a25288   0.835   3.176   5.901  0.8860 -1.3244  1.1540
 1525ESO     O125289   5.911   4.030   4.610  0.0342 -0.3238  0.4817
 1525ESO     O125290   6.044   3.848   4.535  0.2041  0.6428  0.0777
 1525ESO     O125291   6.131   3.993   4.703  0.2281  0.9454 -0.4640
 1525ESO      S25292   6.013   3.937   4.643  0.4278  0.2629  0.3422
 1525ESO     O225293   5.950   3.841   4.755 -0.5398 -0.4296 -0.2010
 1525ESO    C1a25294   5.904   3.897   4.882 -0.7193  0.1398 -0.8393
 1525ESO    H1a25295   5.982   3.954   4.938  0.7173  2.5443  0.7974
 1525ESO    H1a25296   5.818   3.961   4.859  0.0047  0.4935  1.6060
 1525ESO    C2a25297   5.862   3.770   4.966  1.0056  0.0379 -0.0441
 1525ESO    H2a25298   5.808   3.703   4.899  1.7527  0.7697 -0.3718
 1525ESO    H2a25299   5.796   3.788   5.050 -0.9189 -0.3626 -2.2988
 1525ESO    H2a25300   5.960   3.724   5.003  1.0151  0.7537  1.6119
 1526ESO     O125301   1.869   2.911   3.154 -0.4576  0.4886  0.2717
 1526ESO     O125302   1.784   2.866   3.375  0.8074  0.0520 -0.0219
 1526ESO     O125303   1.975   3.019   3.340 -0.4988  0.4180  0.3721
 1526ESO      S25304   1.854   2.959   3.287  0.2800 -0.2104  0.6712
 1526ESO     O225305   1.746   3.076   3.274  0.6045  0.1760  0.0082
 1526ESO    C1a25306   1.616   3.035   3.218 -0.3948  0.1281  0.2205
 1526ESO    H1a25307   1.606   3.046   3.103 -2.6673 -0.2628  0.9639
 1526ESO    H1a25308   1.602   2.932   3.235 -1.6882  0.5965 -0.6016
 1526ESO    C2a25309   1.506   3.114   3.278 -0.5190 -0.9105  0.0129
 1526ESO    H2a25310   1.524   3.223   3.268  1.3878 -0.7967 -0.6731
 1526ESO    H2a25311   1.489   3.111   3.388 -3.2100  0.9512  2.9106
 1526ESO    H2a25312   1.410   3.082   3.248 -1.1256  3.5547  2.2372
 1527ESO     O125313   6.814   6.675   5.359  0.1991  0.5622 -0.7039
 1527ESO     O125314   6.639   6.609   5.223 -0.1881  0.4053 -0.8218
 1527ESO     O125315   6.594   6.667   5.448  0.0891  0.3636 -0.5688
 1527ESO      S25316   6.674   6.687   5.333 -0.2178 -0.0603 -0.0644
 1527ESO     O225317   6.659   6.832   5.291  0.1562 -0.4618 -0.2638
 1527ESO    C1a25318   6.532   6.894   5.256 -0.5173 -0.1659  0.7759
 1527ESO    H1a25319   6.491   6.844   5.174  2.5445  0.1408  0.7822
 1527ESO    H1a25320   6.456   6.884   5.336  0.4022 -1.4713  1.3020
 1527ESO    C2a25321   6.558   7.043   5.225 -0.6529  0.2223  0.5135
 1527ESO    H2a25322   6.610   7.043   5.129 -1.0819 -4.8769  2.2581
 1527ESO    H2a25323   6.620   7.082   5.299 -2.2098 -0.6030  1.1692
 1527ESO    H2a25324   6.468   7.100   5.216  1.2419 -1.0054  2.0220
 1528ESO     O125325   0.684   0.842   4.790  0.5218  0.5609  0.5781
 1528ESO     O125326   0.722   0.689   4.618 -0.5599  0.2106  0.1072
 1528ESO     O125327   0.583   0.630   4.802  0.3637  0.2751  0.1517
 1528ESO      S25328   0.629   0.734   4.716  0.0223 -0.2150  0.2493
 1528ESO     O225329   0.501   0.792   4.646 -0.1413 -0.0714  0.0034
 1528ESO    C1a25330   0.406   0.695   4.589 -0.0297  0.2291 -0.2548
 1528ESO    H1a25331   0.453   0.629   4.509  0.5313 -0.1555 -0.0781
 1528ESO    H1a25332   0.355   0.642   4.665  0.8635  0.7815 -0.7593
 1528ESO    C2a25333   0.301   0.776   4.513  0.3069  0.3218  0.1038
 1528ESO    H2a25334   0.235   0.706   4.458  0.7747  2.7185  0.6754
 1528ESO    H2a25335   0.352   0.849   4.449  1.7190 -2.8100 -1.3923
 1528ESO    H2a25336   0.234   0.821   4.584 -0.7320 -3.2285  0.0859
 1529ESO     O125337   5.422   5.016   3.430 -0.0970  0.5973  0.3764
 1529ESO     O125338   5.554   5.171   3.298  0.2841  0.7199  0.3429
 1529ESO     O125339   5.567   4.933   3.249  0.2178  0.2203 -0.7903
 1529ESO      S25340   5.485   5.044   3.300  0.3992 -0.2134 -0.5349
 1529ESO     O225341   5.357   5.057   3.197 -0.0019 -0.2424  0.4735
 1529ESO    C1a25342   5.266   4.940   3.170 -0.3328 -0.0952  0.1434
 1529ESO    H1a25343   5.270   4.869   3.252  0.9516 -2.3428 -4.5636
 1529ESO    H1a25344   5.165   4.974   3.161  0.1809  1.2581  0.2561
 1529ESO    C2a25345   5.310   4.876   3.044 -0.1601 -0.4043  0.8153
 1529ESO    H2a25346   5.341   4.945   2.978  0.0781 -1.8953 -0.0854
 1529ESO    H2a25347   5.225   4.828   2.995  1.0483 -0.7346  0.1402
 1529ESO    H2a25348   5.389   4.803   3.053 -1.2953 -1.6212  0.1455
 1530ESO     O125349   0.283   0.172   5.519 -0.3424 -0.3347 -0.2755
 1530ESO     O125350   0.394   0.097   5.312  0.1777  0.2908 -0.3919
 1530ESO     O125351   0.398   0.329   5.363 -0.0710  0.4191 -0.2896
 1530ESO      S25352   0.390   0.194   5.417 -0.0522  0.2413 -0.1133
 1530ESO     O225353   0.526   0.170   5.493  0.1758  0.5653 -0.4425
 1530ESO    C1a25354   0.646   0.136   5.422  1.1191  1.0008 -0.0613
 1530ESO    H1a25355   0.646   0.034   5.382 -0.9150  2.0043 -0.5129
 1530ESO    H1a25356   0.670   0.210   5.341 -2.6993  0.8061 -0.5039
 1530ESO    C2a25357   0.752   0.167   5.519 -0.5994  0.2771  0.0843
 1530ESO    H2a25358   0.844   0.159   5.460 -1.0582  3.7413 -2.6086
 1530ESO    H2a25359   0.748   0.101   5.607 -2.4895  1.7935  1.7190
 1530ESO    H2a25360   0.744   0.269   5.557  0.8312 -1.1382 -0.7767
 1531ESO     O125361   4.456   0.036   5.738 -0.1491  0.5731  0.1371
 1531ESO     O125362   4.614   0.199   5.671  0.1086  0.5133  0.2517
 1531ESO     O125363   4.454   0.259   5.835 -0.1639  0.0910 -0.5265
 1531ESO      S25364   4.535   0.154   5.775 -0.1115 -0.0709 -0.0634
 1531ESO     O225365   4.631   0.113   5.887 -0.3559  0.0411  0.2448
 1531ESO    C1a25366   4.738   0.009   5.889 -0.7113  0.2426  0.4539
 1531ESO    H1a25367   4.699  -0.092   5.854  4.4466  1.3128  0.5117
 1531ESO    H1a25368   4.817   0.048   5.820  3.8384  2.3504 -0.4305
 1531ESO    C2a25369   4.782  -0.001   6.031 -0.0726  0.2644  0.0877
 1531ESO    H2a25370   4.888  -0.041   6.043  1.3354 -0.8188  0.4138
 1531ESO    H2a25371   4.717  -0.057   6.091 -0.2919 -1.5863 -3.6576
 1531ESO    H2a25372   4.793   0.099   6.067 -0.2192  0.6989 -1.9691
 1532ESO     O125373   2.517   5.632   3.287 -0.1636 -0.0500  0.6947
 1532ESO     O125374   2.290   5.565   3.283 -0.2341  0.2251  0.3567
 1532ESO     O125375   2.472   5.406   3.232  0.4452  0.3415 -0.4138
 1532ESO      S25376   2.428   5.523   3.305 -0.6036  0.1233  0.2806
 1532ESO     O225377   2.444   5.480   3.452 -0.2644 -0.0589  0.3610
 1532ESO    C1a25378   2.357   5.375   3.506 -1.1829 -0.5156 -0.7173
 1532ESO    H1a25379   2.264   5.361   3.452 -2.0996 -1.8967 -0.8474
 1532ESO    H1a25380   2.406   5.271   3.498 -0.1589 -2.1219 -0.0011
 1532ESO    C2a25381   2.338   5.420   3.649 -0.0552  0.4053  0.0848
 1532ESO    H2a25382   2.244   5.379   3.697  0.2772 -0.2406 -0.9476
 1532ESO    H2a25383   2.342   5.525   3.649  2.6901 -2.0858 -0.8748
 1532ESO    H2a25384   2.424   5.386   3.709  2.1055 -0.8041  0.5535
 1533ESO     O125385   4.431   1.481   1.258  0.6150  0.1220  0.3871
 1533ESO     O125386   4.621   1.595   1.344  0.0441  0.1423 -0.4861
 1533ESO     O125387   4.589   1.365   1.390 -0.8318 -0.4576  0.7031
 1533ESO      S25388   4.567   1.472   1.299  0.1995  0.0216  0.1291
 1533ESO     O225389   4.640   1.431   1.168  0.6870 -0.6204  0.0594
 1533ESO    C1a25390   4.785   1.423   1.172  0.3875  0.0794 -0.0562
 1533ESO    H1a25391   4.824   1.519   1.197  1.7772 -2.3658  2.1871
 1533ESO    H1a25392   4.825   1.354   1.241 -0.3369  2.9728  0.6275
 1533ESO    C2a25393   4.824   1.391   1.029  0.4027  0.0673 -0.6279
 1533ESO    H2a25394   4.926   1.392   0.994  2.5007  0.5165  1.8894
 1533ESO    H2a25395   4.770   1.469   0.979 -2.5071  0.8171  0.5384
 1533ESO    H2a25396   4.776   1.296   1.005 -0.1863  1.6431  0.3562
 1534ESO     O125397   6.688   2.976   2.678  0.5790  0.1280 -0.0298
 1534ESO     O125398   6.644   2.744   2.706  0.1829 -0.6340 -0.3003
 1534ESO     O125399   6.546   2.857   2.525  0.0558  0.3956 -0.0283
 1534ESO      S25400   6.658   2.850   2.613 -0.1102 -0.2196 -0.1243
 1534ESO     O225401   6.783   2.820   2.528 -0.1712 -0.7177  0.3306
 1534ESO    C1a25402   6.798   2.692   2.461  0.0944  0.6211  0.0927
 1534ESO    H1a25403   6.890   2.647   2.489 -0.8101  0.1660  0.0553
 1534ESO    H1a25404   6.703   2.630   2.473 -0.3053 -0.1931  0.3118
 1534ESO    C2a25405   6.815   2.727   2.318  0.1116 -0.1682 -0.4771
 1534ESO    H2a25406   6.847   2.645   2.252 -3.4064 -1.6543  1.4730
 1534ESO    H2a25407   6.894   2.807   2.304  1.1379  0.8088  1.1963
 1534ESO    H2a25408   6.722   2.767   2.277  1.2196  0.8830 -0.1745
 1535ESO     O125409   0.401   2.094   6.714 -0.5875 -0.2435 -0.2842
 1535ESO     O125410   0.198   2.214   6.664  0.2201  0.0551 -0.0511
 1535ESO     O125411   0.325   2.260   6.867 -0.3550  0.3435  0.4804
 1535ESO      S25412   0.330   2.219   6.729  0.0141  0.1941  0.3774
 1535ESO     O225413   0.407   2.327   6.644 -0.0828  0.1351 -0.2154
 1535ESO    C1a25414   0.342   2.451   6.636  0.4641  1.2245 -0.8783
 1535ESO    H1a25415   0.277   2.446   6.556 -0.8977  0.8803 -0.6695
 1535ESO    H1a25416   0.282   2.460   6.733 -1.1324 -1.1016 -1.8272
 1535ESO    C2a25417   0.433   2.565   6.624  0.2754  0.0420 -0.4188
 1535ESO    H2a25418   0.485   2.587   6.717  2.2468 -0.4460  0.9856
 1535ESO    H2a25419   0.377   2.657   6.597 -2.0348  2.4180  1.3926
 1535ESO    H2a25420   0.511   2.539   6.547  1.4149  1.8855  2.7794
 1536ESO     O125421   2.424   3.231   3.157  0.0049  0.5729 -0.6326
 1536ESO     O125422   2.281   3.397   3.050 -0.2504 -0.4331 -1.1297
 1536ESO     O125423   2.248   3.331   3.279 -0.2900  0.3937 -0.1025
 1536ESO      S25424   2.343   3.348   3.172 -0.5770 -0.2546  0.1722
 1536ESO     O225425   2.434   3.466   3.213  0.1800  0.1147  0.6561
 1536ESO    C1a25426   2.520   3.454   3.328  0.6035  0.8347  0.3258
 1536ESO    H1a25427   2.464   3.483   3.420  1.4713 -2.9316  2.9180
 1536ESO    H1a25428   2.561   3.353   3.336 -3.5347  1.0468  0.0660
 1536ESO    C2a25429   2.635   3.542   3.294 -0.1865 -0.3969 -1.4083
 1536ESO    H2a25430   2.715   3.539   3.364 -0.2737 -1.4055 -1.4299
 1536ESO    H2a25431   2.607   3.640   3.286  3.5070 -0.8594  2.1522
 1536ESO    H2a25432   2.670   3.511   3.198 -3.7100 -0.1814 -0.0462
 1537ESO     O125433   4.295   4.549   4.227  0.7151  0.5592 -0.1691
 1537ESO     O125434   4.428   4.448   4.387  0.0350 -0.0919  0.0056
 1537ESO     O125435   4.521   4.628   4.256 -0.1707  0.0589 -0.1577
 1537ESO      S25436   4.405   4.570   4.317 -0.0835  0.5391 -0.2298
 1537ESO     O225437   4.348   4.673   4.415  0.6542 -0.2660  0.3587
 1537ESO    C1a25438   4.286   4.797   4.378 -0.3262  0.1713 -0.2842
 1537ESO    H1a25439   4.340   4.850   4.311 -2.8518 -2.1170  0.5467
 1537ESO    H1a25440   4.184   4.775   4.330 -0.3116  1.7201  0.7473
 1537ESO    C2a25441   4.272   4.878   4.503 -0.0959 -0.0238  0.7084
 1537ESO    H2a25442   4.190   4.844   4.561  0.6595 -0.3754 -2.1832
 1537ESO    H2a25443   4.246   4.977   4.461 -1.5034 -2.5149 -0.5362
 1537ESO    H2a25444   4.361   4.892   4.564 -2.3985  3.4860  2.5093
 1538ESO     O125445   0.088   3.119   3.586  0.4858 -0.0571  0.0967
 1538ESO     O125446  -0.137   3.193   3.665 -0.4977  0.3520  0.0563
 1538ESO     O125447  -0.107   3.052   3.467 -0.1411  0.0102  0.2085
 1538ESO      S25448  -0.053   3.096   3.596  0.2095 -0.0899  0.3203
 1538ESO     O225449  -0.062   2.954   3.685 -0.3475  0.1045 -0.0778
 1538ESO    C1a25450  -0.036   2.964   3.827  0.4699 -0.9693  0.6653
 1538ESO    H1a25451   0.059   3.018   3.840 -0.9962 -2.7894 -0.7833
 1538ESO    H1a25452  -0.121   3.017   3.872  0.4429  1.3580 -0.4037
 1538ESO    C2a25453  -0.026   2.824   3.883  0.4254  0.1128 -0.6576
 1538ESO    H2a25454  -0.130   2.783   3.886  0.3041  2.6073  0.1262
 1538ESO    H2a25455   0.018   2.826   3.985  0.4233 -1.8619  0.6321
 1538ESO    H2a25456   0.032   2.761   3.821 -2.5698  0.6952  2.2658
 1539ESO     O125457   5.633   0.320   4.263  0.5656 -0.1449  0.5479
 1539ESO     O125458   5.499   0.501   4.190 -0.5862 -0.8414 -0.2319
 1539ESO     O125459   5.689   0.416   4.064 -0.4183  0.4195  0.9788
 1539ESO      S25460   5.580   0.389   4.153  0.3960 -0.1397  0.0975
 1539ESO     O225461   5.488   0.295   4.079 -0.0836  0.3626  0.1091
 1539ESO    C1a25462   5.380   0.218   4.139 -0.3964  0.4265  0.2670
 1539ESO    H1a25463   5.378   0.126   4.083 -1.6221 -0.3341 -0.5130
 1539ESO    H1a25464   5.396   0.200   4.245  1.2591  0.7051  2.8860
 1539ESO    C2a25465   5.247   0.282   4.118  0.1563 -0.6130  0.2613
 1539ESO    H2a25466   5.242   0.360   4.189 -0.3176 -1.5082  0.2199
 1539ESO    H2a25467   5.153   0.212   4.124 -0.6924 -0.1624 -1.4544
 1539ESO    H2a25468   5.244   0.325   4.019  2.9776 -0.5763 -1.0789
 1540ESO     O125469   5.109   4.310   1.811  0.0695  0.1159 -0.4645
 1540ESO     O125470   5.175   4.493   1.666  0.0394  0.1381  0.1632
 1540ESO     O125471   4.997   4.343   1.600 -0.0036  0.0093  0.1250
 1540ESO      S25472   5.067   4.405   1.709  0.3328 -0.0760 -0.1718
 1540ESO     O225473   4.965   4.502   1.771  0.1584  0.6197 -0.1779
 1540ESO    C1a25474   4.828   4.458   1.794 -0.7721 -0.1058  0.0952
 1540ESO    H1a25475   4.824   4.347   1.800  1.1158  1.3553  0.0745
 1540ESO    H1a25476   4.808   4.496   1.896  0.7672  0.8415  3.2393
 1540ESO    C2a25477   4.739   4.528   1.699  0.7158 -0.4086 -0.4390
 1540ESO    H2a25478   4.638   4.505   1.726 -0.5622  0.7954 -1.8629
 1540ESO    H2a25479   4.764   4.491   1.601  3.6247 -1.4274  0.2405
 1540ESO    H2a25480   4.754   4.635   1.698 -0.1875  1.5861  3.0972
 1541ESO     O125481   5.474   2.513   4.277 -0.0242 -0.3656  0.7643
 1541ESO     O125482   5.703   2.511   4.325 -0.3790  0.0780  0.2972
 1541ESO     O125483   5.625   2.642   4.143  0.0997  0.3051 -0.0851
 1541ESO      S25484   5.594   2.590   4.273  0.3358 -0.0195  0.4709
 1541ESO     O225485   5.563   2.715   4.372  0.3041 -0.6847 -0.2947
 1541ESO    C1a25486   5.657   2.827   4.367  0.0185  0.5856  0.3020
 1541ESO    H1a25487   5.750   2.810   4.423  0.4075  5.6579 -0.6945
 1541ESO    H1a25488   5.692   2.846   4.273 -1.3270  3.2939  3.2046
 1541ESO    C2a25489   5.596   2.942   4.441  0.3062  0.3628  0.1414
 1541ESO    H2a25490   5.500   2.954   4.397  1.6130  1.4532 -1.8990
 1541ESO    H2a25491   5.647   3.035   4.409 -0.8714  1.3098 -0.8966
 1541ESO    H2a25492   5.581   2.939   4.543 -1.6790  1.2535 -0.1154
 1542ESO     O125493   3.450   2.180   2.866  0.3707 -0.7775  0.2160
 1542ESO     O125494   3.638   2.243   3.016  0.4060  0.1374  0.3828
 1542ESO     O125495   3.575   2.388   2.828 -0.6683  0.3879  0.4416
 1542ESO      S25496   3.529   2.288   2.925 -0.2437 -0.0385 -0.1636
 1542ESO     O225497   3.423   2.366   3.014 -0.6636 -0.5601  0.6670
 1542ESO    C1a25498   3.303   2.410   2.962 -0.0493 -0.6203  0.4439
 1542ESO    H1a25499   3.300   2.418   2.853  3.9305  0.1385  1.3537
 1542ESO    H1a25500   3.228   2.342   2.998  0.6687  0.7619  1.9898
 1542ESO    C2a25501   3.278   2.548   3.030 -0.1045 -0.4732  0.3665
 1542ESO    H2a25502   3.319   2.631   2.972  1.2974 -0.3781  1.3581
 1542ESO    H2a25503   3.325   2.547   3.127 -1.5474  0.2267 -1.9707
 1542ESO    H2a25504   3.173   2.574   3.033  0.6405  0.1193 -0.6764
 1543ESO     O125505   1.820   3.995   1.400 -0.1335 -0.2139  0.2659
 1543ESO     O125506   2.011   4.147   1.360 -0.1941 -0.7251 -0.2055
 1543ESO     O125507   1.880   4.156   1.563 -0.3047 -0.0113 -0.1487
 1543ESO      S25508   1.927   4.076   1.454 -0.1009  0.1784 -0.2535
 1543ESO     O225509   2.026   3.966   1.524 -0.5115  0.9797 -0.3823
 1543ESO    C1a25510   2.136   4.023   1.605 -0.5656  0.1186  0.5300
 1543ESO    H1a25511   2.225   4.018   1.544 -0.1400 -1.9125 -2.5703
 1543ESO    H1a25512   2.114   4.127   1.628  1.9043 -0.1709  3.1023
 1543ESO    C2a25513   2.143   3.947   1.737  0.0269  0.2267 -0.0003
 1543ESO    H2a25514   2.154   3.842   1.709  3.5881 -2.1886 -1.4411
 1543ESO    H2a25515   2.061   3.963   1.805 -0.4207 -2.1831  3.0677
 1543ESO    H2a25516   2.234   3.968   1.792  0.4011  1.3823  1.7568
 1544ESO     O125517   1.202   2.743   3.156 -0.4086  0.2423 -0.3826
 1544ESO     O125518   1.176   2.980   3.120  0.4087  0.0456 -0.0054
 1544ESO     O125519   1.166   2.814   2.935  0.0310  0.1804  0.3269
 1544ESO      S25520   1.142   2.845   3.075 -0.8619  0.1332  0.0650
 1544ESO     O225521   0.984   2.837   3.097  0.3012  0.5401  0.8459
 1544ESO    C1a25522   0.931   2.711   3.044  0.4431  0.0883  0.1288
 1544ESO    H1a25523   0.968   2.676   2.944 -1.3233 -4.1276  1.7043
 1544ESO    H1a25524   0.969   2.628   3.108 -1.6406 -1.4271 -0.1447
 1544ESO    C2a25525   0.779   2.724   3.046 -0.0998  0.2681  0.7884
 1544ESO    H2a25526   0.754   2.807   2.980  2.3918  1.3934  0.9937
 1544ESO    H2a25527   0.742   2.745   3.145 -1.1219 -3.3969 -0.6610
 1544ESO    H2a25528   0.731   2.631   3.023  1.5185  1.8376  1.4090
 1545ESO     O125529   5.751   5.761   1.056  0.3055  0.7676 -0.3278
 1545ESO     O125530   5.901   5.580   1.094 -0.1435 -0.0801 -0.0744
 1545ESO     O125531   5.952   5.800   1.179 -0.3127  0.3368  0.7386
 1545ESO      S25532   5.849   5.706   1.146 -0.3965  0.4740 -0.0616
 1545ESO     O225533   5.763   5.670   1.271 -0.0669 -0.6033 -0.9216
 1545ESO    C1a25534   5.816   5.595   1.385  0.0723  0.3165  0.0014
 1545ESO    H1a25535   5.859   5.507   1.335  0.0555  1.9324 -1.0334
 1545ESO    H1a25536   5.891   5.649   1.448  1.4892  0.2395  1.7426
 1545ESO    C2a25537   5.688   5.555   1.459  0.0249 -0.2243 -0.1150
 1545ESO    H2a25538   5.621   5.489   1.403  3.5870 -1.3620  2.4590
 1545ESO    H2a25539   5.646   5.647   1.497  0.7663 -1.0191  2.9838
 1545ESO    H2a25540   5.702   5.489   1.544 -0.2739 -2.4989 -0.9217
 1546ESO     O125541   2.242   3.175   1.075  0.0802  0.1293 -0.1999
 1546ESO     O125542   2.176   3.338   0.918  0.1789 -0.2746 -0.3681
 1546ESO     O125543   2.026   3.270   1.076  0.2050  0.7266 -0.0688
 1546ESO      S25544   2.166   3.293   1.052 -0.3175  0.1140  0.1493
 1546ESO     O225545   2.223   3.402   1.151  0.0712 -0.0960  0.6209
 1546ESO    C1a25546   2.201   3.387   1.293 -0.3116 -0.8014  0.3237
 1546ESO    H1a25547   2.107   3.433   1.319  0.3194 -0.3743 -0.5671
 1546ESO    H1a25548   2.198   3.284   1.312  1.0219  0.4061 -3.1121
 1546ESO    C2a25549   2.316   3.457   1.360  0.3678  0.4219 -0.1691
 1546ESO    H2a25550   2.404   3.397   1.338  0.8278  1.1311  0.2574
 1546ESO    H2a25551   2.297   3.464   1.470 -2.2050  0.4688 -0.3763
 1546ESO    H2a25552   2.332   3.553   1.314  2.6577  1.7415 -1.7487
 1547ESO     O125553   2.324   1.008   5.616  0.8204  0.3369 -0.2465
 1547ESO     O125554   2.434   1.164   5.459 -0.4767 -0.2827 -0.4482
 1547ESO     O125555   2.555   0.994   5.576 -0.3841 -0.5631 -0.2768
 1547ESO      S25556   2.431   1.035   5.519  0.0583  0.1543 -0.0093
 1547ESO     O225557   2.411   0.942   5.398  0.2704  0.6697  0.2536
 1547ESO    C1a25558   2.395   0.802   5.422 -0.2734 -0.5663 -0.2366
 1547ESO    H1a25559   2.495   0.769   5.437  0.6016 -0.2699  0.8328
 1547ESO    H1a25560   2.343   0.786   5.511  3.0423 -0.7747  0.5165
 1547ESO    C2a25561   2.314   0.754   5.302 -0.1124  0.4016  0.5180
 1547ESO    H2a25562   2.292   0.650   5.319  2.4824 -0.1623  1.2116
 1547ESO    H2a25563   2.365   0.757   5.209 -2.3549  1.5963  3.3344
 1547ESO    H2a25564   2.213   0.810   5.280 -1.7422  2.4051  0.5022
 1548ESO     O125565   5.449   5.395   6.610 -0.5516 -0.2952  0.4073
 1548ESO     O125566   5.609   5.226   6.680  0.7763 -0.1146 -0.1102
 1548ESO     O125567   5.505   5.363   6.844  0.5784 -0.0858 -0.0248
 1548ESO      S25568   5.491   5.305   6.717  0.1779 -0.0494 -0.3095
 1548ESO     O225569   5.373   5.205   6.734  0.2984 -0.0644  1.0209
 1548ESO    C1a25570   5.348   5.094   6.646  0.2087  0.4378  0.2274
 1548ESO    H1a25571   5.433   5.070   6.579  1.5112 -1.6616  0.3143
 1548ESO    H1a25572   5.326   5.000   6.702  0.6933  0.1136  0.6845
 1548ESO    C2a25573   5.224   5.119   6.556 -0.1971 -0.8410  0.2829
 1548ESO    H2a25574   5.208   5.025   6.499 -2.3176 -0.7699 -0.4552
 1548ESO    H2a25575   5.239   5.196   6.484  1.4151 -0.6079  2.7066
 1548ESO    H2a25576   5.135   5.143   6.610 -1.3855 -0.5521 -0.1426
 1549ESO     O125577   3.736   5.257   6.540 -0.1870 -0.5174  0.0984
 1549ESO     O125578   3.524   5.160   6.478 -0.0574  0.1552 -0.0649
 1549ESO     O125579   3.643   5.096   6.685  0.5744  0.0337 -0.2973
 1549ESO      S25580   3.614   5.200   6.586 -0.0731  0.0506 -0.0586
 1549ESO     O225581   3.540   5.318   6.666  0.9796 -0.4790 -0.0961
 1549ESO    C1a25582   3.412   5.278   6.724 -0.5448  0.2258 -0.0273
 1549ESO    H1a25583   3.346   5.242   6.644 -0.3029 -3.5170  1.6591
 1549ESO    H1a25584   3.427   5.195   6.780 -2.0516  1.7745  0.7097
 1549ESO    C2a25585   3.351   5.393   6.802  0.1277  0.3718  0.3898
 1549ESO    H2a25586   3.355   5.487   6.751 -2.0165 -4.3024  0.9203
 1549ESO    H2a25587   3.402   5.404   6.889 -0.3427  1.4591 -0.2974
 1549ESO    H2a25588   3.250   5.365   6.834  0.5112  0.3380 -0.4755
 1550ESO     O125589   4.109   4.019   3.658  0.3767  0.1430  0.1351
 1550ESO     O125590   4.171   3.799   3.722  0.2142  0.0356 -1.0392
 1550ESO     O125591   3.947   3.846   3.714 -0.1160 -0.1270  0.1518
 1550ESO      S25592   4.072   3.877   3.657  0.0407 -0.0124 -0.1282
 1550ESO     O225593   4.072   3.834   3.501 -0.9787 -0.1252  0.0077
 1550ESO    C1a25594   3.964   3.899   3.415  0.5551  0.3401  0.2009
 1550ESO    H1a25595   3.870   3.893   3.471 -0.5608 -2.5541  3.0180
 1550ESO    H1a25596   3.992   4.000   3.392  1.5399 -0.0610  1.2054
 1550ESO    C2a25597   3.941   3.826   3.280  0.9166 -0.2129  0.4064
 1550ESO    H2a25598   4.038   3.807   3.228  0.6846  2.2502  2.1724
 1550ESO    H2a25599   3.876   3.893   3.220 -0.6356 -0.8639 -0.0016
 1550ESO    H2a25600   3.885   3.736   3.300  2.2518  1.1466  3.3187
 1551ESO     O125601   0.269   5.003   6.013 -0.3884 -0.4083  0.0272
 1551ESO     O125602   0.322   4.779   6.069 -0.7222  0.3058 -0.3744
 1551ESO     O125603   0.228   4.822   5.856  0.3493 -0.2400  0.2850
 1551ESO      S25604   0.306   4.875   5.965 -0.5565  0.2203  0.0883
 1551ESO     O225605   0.460   4.888   5.908 -0.1305 -0.3161  0.4383
 1551ESO    C1a25606   0.565   4.914   6.003 -0.9863 -0.3031  0.0554
 1551ESO    H1a25607   0.556   5.016   6.043 -3.9091  1.9353 -1.5431
 1551ESO    H1a25608   0.561   4.843   6.084  0.7250  0.2782 -1.8584
 1551ESO    C2a25609   0.694   4.904   5.930 -0.2292  0.2716  0.6529
 1551ESO    H2a25610   0.695   4.986   5.853  2.3440 -1.7127 -0.5328
 1551ESO    H2a25611   0.691   4.805   5.877 -1.8857 -1.0143  2.3806
 1551ESO    H2a25612   0.775   4.905   6.001 -1.3654  1.3584 -0.8114
 1552ESO     O125613   4.751   5.020   3.651  0.3260  0.4413 -0.3744
 1552ESO     O125614   4.706   5.181   3.483  0.7806 -0.0291 -0.2085
 1552ESO     O125615   4.806   5.255   3.681 -0.4444  0.0071  0.0627
 1552ESO      S25616   4.794   5.144   3.588  0.3608 -0.0287  0.2277
 1552ESO     O225617   4.933   5.109   3.529 -0.1316 -0.1046 -0.8554
 1552ESO    C1a25618   4.951   4.990   3.451 -0.0832 -0.2206  0.4143
 1552ESO    H1a25619   4.922   4.904   3.513  0.9058  0.9681 -2.6172
 1552ESO    H1a25620   4.901   4.989   3.352 -2.2909 -1.3977 -1.3846
 1552ESO    C2a25621   5.092   4.986   3.438  0.1652 -0.1748 -1.0719
 1552ESO    H2a25622   5.108   4.897   3.386  0.6104  0.8326 -1.7154
 1552ESO    H2a25623   5.153   4.988   3.529  2.5292  0.3623 -0.4287
 1552ESO    H2a25624   5.127   5.058   3.370  0.2220  1.1193  4.9503
 1553ESO     O125625   0.469   6.265   4.067 -0.6356 -0.1027  0.1348
 1553ESO     O125626   0.390   6.316   3.850  0.5488 -0.3010  0.1430
 1553ESO     O125627   0.292   6.421   4.049 -0.1972 -0.7654  0.2526
 1553ESO      S25628   0.408   6.366   3.986 -0.3144 -0.4425  0.3535
 1553ESO     O225629   0.506   6.486   3.988  0.6200 -0.2060 -0.4952
 1553ESO    C1a25630   0.650   6.457   3.973 -0.7890 -0.0964 -0.7706
 1553ESO    H1a25631   0.688   6.394   4.051 -0.6457  1.2137  0.8489
 1553ESO    H1a25632   0.660   6.412   3.874 -0.4548  1.5234  0.5654
 1553ESO    C2a25633   0.710   6.599   3.988 -0.0691 -0.7847 -0.3436
 1553ESO    H2a25634   0.763   6.610   4.080 -1.3758 -1.1200 -0.7476
 1553ESO    H2a25635   0.633   6.676   3.981 -3.3953 -1.4818  0.2975
 1553ESO    H2a25636   0.789   6.616   3.915  0.1852  3.0942  0.8508
 1554ESO     O125637   4.765   6.296   2.615  0.0559  0.2481  0.1724
 1554ESO     O125638   4.797   6.269   2.849 -0.2515  0.4427 -0.1768
 1554ESO     O125639   4.667   6.448   2.763  0.4915  0.2210 -0.2102
 1554ESO      S25640   4.708   6.310   2.743  0.0993  0.0572 -0.2205
 1554ESO     O225641   4.571   6.214   2.743  0.6623  0.1935 -0.1463
 1554ESO    C1a25642   4.602   6.075   2.724 -0.4035  0.4027 -0.3292
 1554ESO    H1a25643   4.531   6.047   2.641 -3.3716  0.7978 -1.0638
 1554ESO    H1a25644   4.709   6.071   2.690  0.2807  0.0095  2.4732
 1554ESO    C2a25645   4.575   5.994   2.844  1.0392 -0.0084 -0.6171
 1554ESO    H2a25646   4.617   6.043   2.933 -3.2095  1.4650  4.4753
 1554ESO    H2a25647   4.605   5.882   2.839  0.7229 -2.1109 -1.3552
 1554ESO    H2a25648   4.467   5.993   2.872 -2.6356 -0.3052 -2.3903
 1555ESO     O125649   2.735   3.269   3.597  0.6722 -0.1585  0.3078
 1555ESO     O125650   2.844   3.233   3.814 -0.2096 -0.3498  0.0404
 1555ESO     O125651   2.950   3.157   3.618 -0.0080  0.1093  0.5540
 1555ESO      S25652   2.857   3.252   3.676 -0.8243 -0.1413  0.3260
 1555ESO     O225653   2.934   3.386   3.654 -0.6444 -0.3502  0.1233
 1555ESO    C1a25654   2.870   3.514   3.654  0.0435 -0.8617 -0.0655
 1555ESO    H1a25655   2.769   3.507   3.600  1.2208  1.4173  3.2732
 1555ESO    H1a25656   2.856   3.553   3.753  0.5431 -1.1941  1.3679
 1555ESO    C2a25657   2.965   3.610   3.585  0.2509 -0.4832 -0.0266
 1555ESO    H2a25658   2.968   3.589   3.477  1.7755  1.9440  2.4642
 1555ESO    H2a25659   3.067   3.608   3.619 -0.4027  3.2899 -3.9426
 1555ESO    H2a25660   2.926   3.708   3.594 -0.2614 -2.6120 -0.9155
 1556ESO     O125661   4.672   0.159   2.107 -0.0086  0.5241  0.2741
 1556ESO     O125662   4.881   0.055   2.160  0.8467 -0.4738 -0.0310
 1556ESO     O125663   4.770   0.005   1.945  0.1022  0.7910  0.4965
 1556ESO      S25664   4.790   0.101   2.055 -0.3917 -0.0586  0.1099
 1556ESO     O225665   4.867   0.225   1.988  0.3615 -0.2585  0.0957
 1556ESO    C1a25666   4.796   0.303   1.886 -0.5641  0.4714  0.2676
 1556ESO    H1a25667   4.764   0.243   1.797 -2.5149 -0.5833 -0.7508
 1556ESO    H1a25668   4.705   0.351   1.920 -1.7090  0.3749 -1.4757
 1556ESO    C2a25669   4.893   0.412   1.846  0.3224 -0.5563 -0.1509
 1556ESO    H2a25670   4.923   0.478   1.921  0.2348 -0.5594  3.7110
 1556ESO    H2a25671   4.839   0.469   1.767 -0.7911  2.9346 -0.7108
 1556ESO    H2a25672   4.981   0.369   1.805  0.9417  1.6015  1.8091
 1557ESO     O125673   6.015   0.087   0.802 -0.1771 -0.4444 -0.7142
 1557ESO     O125674   6.092   0.113   0.593 -0.3227 -0.4268  0.2553
 1557ESO     O125675   5.933   0.265   0.672  0.6651  0.3493  0.0906
 1557ESO      S25676   6.042   0.184   0.705 -0.0398  0.4805 -0.0681
 1557ESO     O225677   6.159   0.273   0.758 -0.6350 -0.3364  0.1549
 1557ESO    C1a25678   6.118   0.384   0.839  0.2493  0.4309 -0.5056
 1557ESO    H1a25679   6.055   0.444   0.780 -0.3680 -1.9675  0.2966
 1557ESO    H1a25680   6.064   0.361   0.932  2.8291 -0.4731 -1.0758
 1557ESO    C2a25681   6.246   0.463   0.871 -0.0721 -0.3389 -0.4913
 1557ESO    H2a25682   6.225   0.554   0.922 -1.6525 -1.1831 -1.5480
 1557ESO    H2a25683   6.296   0.489   0.782  0.1361  1.6161 -2.2409
 1557ESO    H2a25684   6.322   0.402   0.930  0.3161  0.3524 -2.1543
 1558ESO     O125685   5.759   2.009   2.301  0.4563  0.0862 -0.0919
 1558ESO     O125686   5.593   2.068   2.139  0.3109  0.3181 -1.1201
 1558ESO     O125687   5.752   1.893   2.098 -0.0038 -0.0917  1.1491
 1558ESO      S25688   5.672   1.958   2.197  0.4086  0.0529  0.2083
 1558ESO     O225689   5.572   1.851   2.261  0.1051 -0.8690 -0.6086
 1558ESO    C1a25690   5.480   1.895   2.359  0.3581 -0.1339 -0.5138
 1558ESO    H1a25691   5.532   1.945   2.445 -0.3056 -0.7732 -2.9999
 1558ESO    H1a25692   5.412   1.967   2.314 -1.6747 -2.2820  1.0995
 1558ESO    C2a25693   5.403   1.776   2.404  0.6797 -1.3780  0.2699
 1558ESO    H2a25694   5.305   1.799   2.460 -1.4363 -0.8077  0.8283
 1558ESO    H2a25695   5.463   1.721   2.474 -0.8462 -0.3721 -0.5386
 1558ESO    H2a25696   5.388   1.697   2.327  0.5747  2.6118 -1.2898
 1559ESO     O125697   1.481   3.886   6.210  0.0421 -0.2529 -0.2055
 1559ESO     O125698   1.321   3.999   6.090  0.1489 -0.2112 -0.3131
 1559ESO     O125699   1.296   3.770   6.129  0.1588  0.1515 -0.4726
 1559ESO      S25700   1.343   3.892   6.181  0.2729  0.0212  0.0590
 1559ESO     O225701   1.270   3.913   6.316  0.6235 -0.7527  0.1193
 1559ESO    C1a25702   1.242   4.049   6.366 -0.3207  0.3680 -0.9131
 1559ESO    H1a25703   1.313   4.116   6.329 -3.1637  0.9319  0.1206
 1559ESO    H1a25704   1.141   4.061   6.336  2.9523 -1.9524  2.0299
 1559ESO    C2a25705   1.263   4.040   6.512 -0.3312 -0.7573  0.3374
 1559ESO    H2a25706   1.368   4.013   6.544  0.7583 -2.3653  0.1327
 1559ESO    H2a25707   1.196   3.962   6.559 -3.3029 -0.7664  0.4896
 1559ESO    H2a25708   1.240   4.133   6.568 -2.4438 -1.9273  2.1290
 1560ESO     O125709   4.725   3.894   5.742  0.2570  0.3380  0.2791
 1560ESO     O125710   4.793   3.693   5.646 -0.1529  0.3282 -0.1488
 1560ESO     O125711   4.916   3.896   5.610  0.1835 -0.1997  0.1471
 1560ESO      S25712   4.836   3.820   5.701 -0.2404  0.0056 -0.1020
 1560ESO     O225713   4.918   3.798   5.826  0.4657  0.4813 -0.0199
 1560ESO    C1a25714   4.981   3.910   5.888 -0.7072 -0.1133  0.2575
 1560ESO    H1a25715   4.929   4.000   5.858  0.1307 -1.4940 -2.7753
 1560ESO    H1a25716   4.971   3.900   5.997  0.5485  0.1526  1.2434
 1560ESO    C2a25717   5.130   3.921   5.847  0.4447 -0.2770  0.1952
 1560ESO    H2a25718   5.159   4.016   5.885 -0.0312 -0.6684  0.5110
 1560ESO    H2a25719   5.142   3.946   5.742 -1.9523  1.6059 -0.9234
 1560ESO    H2a25720   5.196   3.839   5.871  2.0282  1.5824 -1.0976
 1561ESO     O125721   2.739   2.520   2.663 -0.9113 -0.1661  0.4049
 1561ESO     O125722   2.671   2.384   2.478  0.1961 -0.2752  0.0627
 1561ESO     O125723   2.544   2.386   2.683 -0.2498  0.3339  0.1836
 1561ESO      S25724   2.627   2.463   2.592  0.1672 -0.1813 -0.2261
 1561ESO     O225725   2.543   2.582   2.532 -0.1106  0.1141  0.2411
 1561ESO    C1a25726   2.516   2.702   2.613 -1.2875 -0.4212  0.4513
 1561ESO    H1a25727   2.414   2.709   2.631  3.5527  2.0053  0.2115
 1561ESO    H1a25728   2.557   2.693   2.712  1.2063  1.4509 -0.9514
 1561ESO    C2a25729   2.576   2.822   2.536 -0.0913  0.1716  0.0874
 1561ESO    H2a25730   2.526   2.832   2.433 -1.5801  1.0106 -3.6652
 1561ESO    H2a25731   2.687   2.810   2.548 -2.4509  0.0728  0.2981
 1561ESO    H2a25732   2.538   2.906   2.592 -0.0633  0.3077  0.9980
 1562ESO     O125733   0.985   2.324   4.316 -0.0306 -0.6787 -0.3930
 1562ESO     O125734   0.897   2.421   4.514 -0.0532 -0.2596 -0.3706
 1562ESO     O125735   1.059   2.249   4.537  0.5037 -0.0902 -0.2212
 1562ESO      S25736   1.010   2.359   4.455 -0.0028  0.3216 -0.2446
 1562ESO     O225737   1.115   2.475   4.464  0.4942 -0.9720 -0.0697
 1562ESO    C1a25738   1.251   2.457   4.423 -0.6681 -0.2748 -0.5916
 1562ESO    H1a25739   1.311   2.515   4.490  0.8561 -3.8701 -0.6139
 1562ESO    H1a25740   1.289   2.355   4.432  1.5391 -0.0552  0.4662
 1562ESO    C2a25741   1.253   2.512   4.283  0.3691 -0.5828  0.3064
 1562ESO    H2a25742   1.180   2.582   4.250  0.9658 -1.0363  0.1566
 1562ESO    H2a25743   1.246   2.440   4.205  2.3087  1.0319  0.6045
 1562ESO    H2a25744   1.355   2.540   4.253 -0.6796  0.4733 -2.2388
 1563ESO     O125745   4.871   0.579   2.193 -0.2032  0.5371  0.0850
 1563ESO     O125746   4.988   0.745   2.322  0.3494 -0.1311 -0.4673
 1563ESO     O125747   4.970   0.765   2.086  0.3524  0.1590  0.1369
 1563ESO      S25748   4.910   0.718   2.206  0.2810 -0.1577  0.4643
 1563ESO     O225749   4.783   0.801   2.235 -0.1107  0.3222  0.5112
 1563ESO    C1a25750   4.810   0.945   2.251 -0.5455  0.3151  0.0160
 1563ESO    H1a25751   4.873   0.958   2.337  1.1121  1.4386 -1.2869
 1563ESO    H1a25752   4.875   0.976   2.175  1.1913 -0.6114 -0.1312
 1563ESO    C2a25753   4.695   1.033   2.233 -0.0775  0.3810  0.4228
 1563ESO    H2a25754   4.657   1.034   2.130  1.8517 -2.0919  1.8904
 1563ESO    H2a25755   4.734   1.131   2.260 -0.8069  0.3253  1.6593
 1563ESO    H2a25756   4.605   1.006   2.286  3.3865 -2.2991  0.8499
 1564ESO     O125757   6.511   4.224   0.037 -0.3748  0.3357  0.5503
 1564ESO     O125758   6.281   4.262  -0.024 -0.6848  0.4707  0.7573
 1564ESO     O125759   6.460   4.380  -0.127 -0.0881  1.0046 -0.6168
 1564ESO      S25760   6.419   4.256  -0.064 -0.0444  0.0650 -0.3530
 1564ESO     O225761   6.431   4.145  -0.179 -0.0981  0.3077  0.8536
 1564ESO    C1a25762   6.395   4.016  -0.140 -0.1240 -0.0065  0.3551
 1564ESO    H1a25763   6.476   3.968  -0.078 -0.6133  0.3449  0.1105
 1564ESO    H1a25764   6.298   4.010  -0.091  0.6014  1.3894 -1.0854
 1564ESO    C2a25765   6.390   3.943  -0.271  0.8956  0.3248 -0.4121
 1564ESO    H2a25766   6.486   3.943  -0.334  3.5779 -0.9340 -2.4619
 1564ESO    H2a25767   6.307   3.987  -0.328  0.1827 -1.2808 -1.9830
 1564ESO    H2a25768   6.362   3.843  -0.236  1.2503  2.1264 -3.0053
 1565ESO     O125769   1.760   1.898   4.978 -0.1627 -0.4154  0.1189
 1565ESO     O125770   1.860   1.798   4.787 -0.5519 -0.4508  0.3005
 1565ESO     O125771   1.975   1.802   4.991 -0.5179  0.0579  0.2879
 1565ESO      S25772   1.844   1.794   4.930 -0.4089  0.0980  0.1273
 1565ESO     O225773   1.782   1.656   4.972 -0.5147  0.1993  0.0737
 1565ESO    C1a25774   1.850   1.529   4.947  0.0965 -0.6578 -1.0751
 1565ESO    H1a25775   1.861   1.515   4.840  1.9003  0.1320  0.5358
 1565ESO    H1a25776   1.944   1.526   4.991  1.0580 -5.3040  3.4446
 1565ESO    C2a25777   1.771   1.418   5.009 -0.1919 -0.2326 -0.7830
 1565ESO    H2a25778   1.668   1.421   4.990  0.2627  6.1944 -3.0002
 1565ESO    H2a25779   1.791   1.441   5.117 -1.1855  0.6129  2.1969
 1565ESO    H2a25780   1.810   1.318   4.981  0.8334 -0.3021 -0.4145
 1566ESO     O125781   5.152   3.382   3.479  0.7670  0.5591 -0.7206
 1566ESO     O125782   5.321   3.529   3.573  0.2155 -0.3541  0.2246
 1566ESO     O125783   5.248   3.553   3.348 -0.5884 -0.3679  0.5228
 1566ESO      S25784   5.213   3.514   3.482 -0.0128 -0.1199 -0.3442
 1566ESO     O225785   5.109   3.618   3.536 -0.9212 -0.8081 -0.0396
 1566ESO    C1a25786   5.134   3.758   3.514  0.3650 -0.9363 -0.1396
 1566ESO    H1a25787   5.227   3.769   3.465 -0.1766  0.2048  2.4665
 1566ESO    H1a25788   5.057   3.795   3.442  0.7095  0.2619 -0.7166
 1566ESO    C2a25789   5.135   3.841   3.639 -0.5571 -0.1435  0.2549
 1566ESO    H2a25790   5.217   3.814   3.702 -2.0917 -0.2721  2.3896
 1566ESO    H2a25791   5.049   3.816   3.700 -1.8207 -1.3633 -3.4136
 1566ESO    H2a25792   5.131   3.942   3.607 -2.9198  1.9328  2.9297
 1567ESO     O125793   6.381   4.193   1.960  0.1052  0.0149  0.3033
 1567ESO     O125794   6.176   4.314   1.982 -0.0952 -0.2442 -0.1938
 1567ESO     O125795   6.341   4.387   1.833 -0.0779  0.0770  0.0387
 1567ESO      S25796   6.279   4.276   1.894  0.5351 -0.2477  0.2575
 1567ESO     O225797   6.215   4.194   1.774 -0.2244 -0.2863  0.3954
 1567ESO    C1a25798   6.185   4.052   1.806 -0.0370  0.1682  0.9700
 1567ESO    H1a25799   6.279   3.996   1.814  0.6793  0.1421  1.6151
 1567ESO    H1a25800   6.146   4.060   1.906 -0.6203  1.1430  0.2376
 1567ESO    C2a25801   6.077   3.998   1.711 -0.7698 -0.2879  0.0805
 1567ESO    H2a25802   6.025   3.912   1.747 -0.5649 -0.5209  0.0305
 1567ESO    H2a25803   6.120   3.988   1.615 -2.3528  2.4355 -0.9071
 1567ESO    H2a25804   6.000   4.082   1.717 -0.0583  1.8763  1.0113
 1568ESO     O125805   1.749   1.263   4.687  0.5293  1.0279 -0.0416
 1568ESO     O125806   1.890   1.067   4.705 -0.2913  0.5867  0.2374
 1568ESO     O125807   1.696   1.070   4.559  0.2743 -0.2355 -0.0287
 1568ESO      S25808   1.801   1.145   4.619  0.1998 -0.2481 -0.2891
 1568ESO     O225809   1.889   1.199   4.495  0.3106  0.0329  0.2145
 1568ESO    C1a25810   2.016   1.259   4.534  0.3586  0.0103  0.6569
 1568ESO    H1a25811   1.999   1.345   4.598 -0.0134  2.8951  2.1176
 1568ESO    H1a25812   2.080   1.180   4.579  0.5606 -1.9173 -2.2264
 1568ESO    C2a25813   2.088   1.310   4.410  0.3955 -0.5911  0.3045
 1568ESO    H2a25814   2.033   1.398   4.370 -0.6060 -0.0138  2.3082
 1568ESO    H2a25815   2.093   1.245   4.323  0.0131 -0.0735  2.2089
 1568ESO    H2a25816   2.185   1.336   4.442  0.9845  0.6127 -2.4192
 1569ESO     O125817   1.151   5.326   1.775  0.4176 -0.4901  0.3048
 1569ESO     O125818   1.110   5.501   1.932  0.0271  0.1717 -0.0502
 1569ESO     O125819   1.084   5.537   1.694  0.3438 -0.0977  0.3910
 1569ESO      S25820   1.075   5.446   1.802 -0.0905 -0.6496 -0.3497
 1569ESO     O225821   0.929   5.390   1.817 -0.2067  0.2894 -0.0178
 1569ESO    C1a25822   0.812   5.476   1.817 -0.2191 -0.9486  0.4203
 1569ESO    H1a25823   0.824   5.551   1.895  0.4881 -0.6544 -1.1818
 1569ESO    H1a25824   0.796   5.520   1.716 -3.4775 -1.9958 -0.3244
 1569ESO    C2a25825   0.691   5.382   1.846 -0.3916  0.5163 -0.3812
 1569ESO    H2a25826   0.676   5.307   1.770 -2.6011  0.1947 -1.2940
 1569ESO    H2a25827   0.601   5.437   1.855 -0.3792 -2.6488  0.4740
 1569ESO    H2a25828   0.712   5.336   1.947  2.3685  1.3589 -1.5474
 1570ESO     O125829   1.838   4.492   4.822  0.0738 -0.1022  0.1315
 1570ESO     O125830   2.044   4.370   4.789  0.2894  0.0214 -0.5804
 1570ESO     O125831   1.889   4.390   4.612 -0.4233 -0.0465  0.4276
 1570ESO      S25832   1.945   4.452   4.727 -0.1324 -0.4534 -0.3514
 1570ESO     O225833   2.021   4.575   4.672 -0.2428 -0.3610 -0.7526
 1570ESO    C1a25834   1.939   4.685   4.617  0.6833 -0.3051 -0.1118
 1570ESO    H1a25835   1.995   4.730   4.537 -2.5088 -0.7018  0.4460
 1570ESO    H1a25836   1.849   4.636   4.579  3.1482 -3.1777 -1.3400
 1570ESO    C2a25837   1.918   4.795   4.716 -0.7128  0.0687  0.0861
 1570ESO    H2a25838   1.843   4.767   4.791  0.6006  0.3614  1.2376
 1570ESO    H2a25839   1.882   4.875   4.648  2.2707  0.2331 -0.9935
 1570ESO    H2a25840   2.008   4.839   4.756 -1.6523 -0.7614  1.1025
 1571ESO     O125841   5.956   3.453   3.409 -1.0338  0.2877 -0.4267
 1571ESO     O125842   6.085   3.271   3.352 -0.1702 -0.0342 -0.1506
 1571ESO     O125843   5.926   3.360   3.194  0.1165  0.0264  0.1412
 1571ESO      S25844   6.023   3.388   3.298  0.1932  0.0398  0.2259
 1571ESO     O225845   6.127   3.480   3.239  0.2665 -0.0941  0.5669
 1571ESO    C1a25846   6.222   3.542   3.321 -0.2208  0.5352 -0.4687
 1571ESO    H1a25847   6.195   3.647   3.348 -2.0733 -0.3453  2.1105
 1571ESO    H1a25848   6.244   3.482   3.404 -1.7471  3.4822  1.5293
 1571ESO    C2a25849   6.347   3.539   3.242 -0.1597 -0.2265 -0.1292
 1571ESO    H2a25850   6.320   3.596   3.155  2.6635 -2.5730  1.1517
 1571ESO    H2a25851   6.377   3.438   3.206  0.2777 -1.5824  0.6585
 1571ESO    H2a25852   6.431   3.586   3.297  0.2467 -0.1628  0.7908
 1572ESO     O125853   4.670   3.843   1.675 -0.2176 -0.1297 -0.6643
 1572ESO     O125854   4.657   3.651   1.826  0.4421 -0.5246 -0.3942
 1572ESO     O125855   4.569   3.875   1.886  0.6623  0.0335 -0.1424
 1572ESO      S25856   4.601   3.778   1.784  0.4871  0.0268 -0.5167
 1572ESO     O225857   4.460   3.750   1.730  0.2582 -0.0891  0.2341
 1572ESO    C1a25858   4.459   3.696   1.587 -0.7068  0.1288  0.0777
 1572ESO    H1a25859   4.476   3.784   1.522  0.0639 -0.5375 -1.1397
 1572ESO    H1a25860   4.541   3.625   1.582  0.9263 -1.3637  1.4749
 1572ESO    C2a25861   4.325   3.646   1.554 -0.1247 -0.3824  0.9216
 1572ESO    H2a25862   4.313   3.622   1.450  1.9692  0.6027 -1.5597
 1572ESO    H2a25863   4.238   3.713   1.579  0.5250  0.8835 -0.1805
 1572ESO    H2a25864   4.315   3.555   1.610  0.0675 -1.9971  0.1157
 1573ESO     O125865   6.502   4.928   4.766 -0.1220  0.0433 -0.1717
 1573ESO     O125866   6.384   4.779   4.627 -0.9674 -0.3418 -0.2503
 1573ESO     O125867   6.299   5.001   4.673  0.1735 -0.1482 -0.7459
 1573ESO      S25868   6.415   4.917   4.656  0.0472 -0.1959 -0.3517
 1573ESO     O225869   6.490   4.974   4.535 -0.6146 -0.3494  0.0854
 1573ESO    C1a25870   6.430   4.987   4.408 -0.6570 -0.0117  0.2586
 1573ESO    H1a25871   6.350   4.919   4.385  0.5801  0.0892 -1.8636
 1573ESO    H1a25872   6.402   5.089   4.385  3.8586  0.9622  0.5458
 1573ESO    C2a25873   6.555   4.965   4.323  0.9140  0.0405  1.3526
 1573ESO    H2a25874   6.633   5.038   4.338 -1.0081 -0.2231  2.5169
 1573ESO    H2a25875   6.529   4.962   4.214 -0.7590  0.5944 -1.8186
 1573ESO    H2a25876   6.599   4.872   4.331  1.4175 -0.1080  0.7793
 1574ESO     O125877   4.673   2.587   2.531 -0.3060  0.2001 -0.3394
 1574ESO     O125878   4.701   2.635   2.294  0.1421  0.3651  0.0538
 1574ESO     O125879   4.528   2.502   2.364  0.2245  0.1742 -0.1191
 1574ESO      S25880   4.609   2.608   2.403 -0.3345  0.4610 -0.0917
 1574ESO     O225881   4.519   2.735   2.427  0.0402 -0.0479  0.3131
 1574ESO    C1a25882   4.402   2.725   2.517 -0.9574  0.2585 -0.2534
 1574ESO    H1a25883   4.339   2.645   2.482  0.6721  0.4547  1.2877
 1574ESO    H1a25884   4.425   2.709   2.619  0.4402  0.0782  1.0862
 1574ESO    C2a25885   4.317   2.849   2.491 -0.4193  0.4524  0.0027
 1574ESO    H2a25886   4.361   2.937   2.534  0.8845  1.3758  0.6224
 1574ESO    H2a25887   4.218   2.843   2.536  1.9429 -1.0150 -1.9319
 1574ESO    H2a25888   4.298   2.872   2.382  0.9158 -2.8743 -2.4770
 1575ESO     O125889   3.100   3.724   4.576  0.0901  0.4669 -0.3588
 1575ESO     O125890   3.110   3.494   4.500  0.0375  0.0467  0.4237
 1575ESO     O125891   3.296   3.639   4.480  0.4488 -0.1239 -0.4648
 1575ESO      S25892   3.179   3.607   4.560  0.1339  0.0840  0.3493
 1575ESO     O225893   3.231   3.562   4.698 -0.2128 -0.3233 -0.4111
 1575ESO    C1a25894   3.322   3.442   4.703  0.1824 -0.2358 -0.2037
 1575ESO    H1a25895   3.273   3.344   4.689 -0.9944  0.0182 -1.4554
 1575ESO    H1a25896   3.404   3.454   4.625  1.2556 -0.0995 -1.0711
 1575ESO    C2a25897   3.387   3.447   4.844  0.5961 -0.4398 -0.0131
 1575ESO    H2a25898   3.311   3.464   4.923  0.1314  1.3170  1.4446
 1575ESO    H2a25899   3.456   3.533   4.857  1.3844 -0.9521 -0.2080
 1575ESO    H2a25900   3.447   3.370   4.870 -0.8868  0.6593 -1.7700
 1576ESO     O125901   1.894   2.176   2.226 -0.2053 -0.1327  0.0417
 1576ESO     O125902   1.965   2.373   2.106 -0.5392  0.0908 -0.1934
 1576ESO     O125903   1.870   2.187   1.991  0.1371 -0.2670  0.1198
 1576ESO      S25904   1.871   2.263   2.110  0.3573  0.2156 -0.1271
 1576ESO     O225905   1.722   2.311   2.127  0.5738 -0.5178  0.0067
 1576ESO    C1a25906   1.683   2.422   2.056  0.0499 -0.4728 -0.3102
 1576ESO    H1a25907   1.703   2.503   2.125 -0.3894 -3.1660  4.4716
 1576ESO    H1a25908   1.746   2.421   1.967  1.6119 -3.7449 -1.2115
 1576ESO    C2a25909   1.544   2.423   2.000  0.3514 -0.4498 -0.7289
 1576ESO    H2a25910   1.482   2.472   2.083 -0.3928  1.0123 -0.8701
 1576ESO    H2a25911   1.509   2.317   1.979  0.0213  0.2745 -0.7105
 1576ESO    H2a25912   1.554   2.480   1.908 -4.0072 -2.1773 -2.0972
 1577ESO     O125913   1.883   3.707   6.636 -0.1567 -0.1856 -0.6323
 1577ESO     O125914   1.992   3.680   6.848  0.4127 -0.4174 -0.1546
 1577ESO     O125915   2.101   3.613   6.651  0.3505 -0.4061  0.6969
 1577ESO      S25916   2.011   3.707   6.706  0.1253 -0.0421 -0.3629
 1577ESO     O225917   2.073   3.849   6.689  0.1500  0.2736  0.2623
 1577ESO    C1a25918   2.101   3.906   6.562 -0.1195  1.1688 -0.2508
 1577ESO    H1a25919   2.208   3.885   6.532  0.8657 -0.2284  1.1874
 1577ESO    H1a25920   2.029   3.864   6.491 -3.3969  0.9651 -1.8777
 1577ESO    C2a25921   2.071   4.053   6.572  0.6095  0.5489 -0.1646
 1577ESO    H2a25922   1.970   4.073   6.583  1.4025  0.1467  1.8593
 1577ESO    H2a25923   2.094   4.111   6.480 -0.2639 -0.8458 -2.8862
 1577ESO    H2a25924   2.133   4.099   6.652  0.3991  2.2003 -0.5345
 1578ESO     O125925   4.267   3.951   6.380  0.4502 -0.0126 -0.0660
 1578ESO     O125926   4.254   3.935   6.143  0.1786  0.3487  0.0269
 1578ESO     O125927   4.472   3.959   6.253 -0.6708 -0.0169  0.5453
 1578ESO      S25928   4.334   3.913   6.262  0.4547  0.2087  0.5514
 1578ESO     O225929   4.357   3.758   6.272  0.2362 -0.1039  0.1137
 1578ESO    C1a25930   4.248   3.681   6.230  0.0418  0.6766 -0.3501
 1578ESO    H1a25931   4.154   3.708   6.277  1.8301 -0.0588 -2.4451
 1578ESO    H1a25932   4.234   3.691   6.121  0.7358 -1.4434 -0.4439
 1578ESO    C2a25933   4.276   3.533   6.266  0.0761 -0.4916  0.1807
 1578ESO    H2a25934   4.276   3.513   6.372 -0.5254 -1.1509 -1.3848
 1578ESO    H2a25935   4.368   3.504   6.231 -3.1351 -2.4546  2.2118
 1578ESO    H2a25936   4.200   3.468   6.232  2.7242 -1.8359  0.0582
 1579ESO     O125937   3.888   0.998   5.391  0.6660 -0.1776 -0.1897
 1579ESO     O125938   3.785   1.170   5.268 -0.3138 -0.3947  0.4184
 1579ESO     O125939   3.786   1.176   5.509 -0.0391  0.0701 -0.2880
 1579ESO      S25940   3.860   1.136   5.389  0.1062 -0.5240  0.0944
 1579ESO     O225941   3.997   1.218   5.383 -0.3137 -0.4150 -0.5497
 1579ESO    C1a25942   4.075   1.244   5.504  0.4743 -1.0612  0.1893
 1579ESO    H1a25943   4.031   1.206   5.595  2.5109  2.5352  1.6151
 1579ESO    H1a25944   4.173   1.199   5.490 -0.7661 -0.0956 -3.1693
 1579ESO    C2a25945   4.087   1.398   5.496  0.1154 -0.2771  0.0401
 1579ESO    H2a25946   4.132   1.424   5.397  3.6733  0.5217 -0.6452
 1579ESO    H2a25947   4.153   1.433   5.574 -0.6235  0.5420 -0.5784
 1579ESO    H2a25948   3.995   1.457   5.506  2.0333 -0.6434 -0.7347
 1580ESO     O125949   4.960   2.026   3.134  0.1283 -0.3630  0.0894
 1580ESO     O125950   4.811   1.897   3.279 -0.3350 -0.6263  0.0327
 1580ESO     O125951   4.723   2.020   3.093  0.1897 -0.3264 -0.2606
 1580ESO      S25952   4.838   1.954   3.146  0.2888 -0.0859 -0.2751
 1580ESO     O225953   4.866   1.834   3.047 -0.1250 -0.9005  0.7553
 1580ESO    C1a25954   4.957   1.724   3.085 -0.0758 -0.5000  0.4706
 1580ESO    H1a25955   5.040   1.766   3.131 -1.9325  3.3877 -0.6186
 1580ESO    H1a25956   4.921   1.660   3.160  1.2399 -0.3910  0.0864
 1580ESO    C2a25957   4.995   1.639   2.967 -0.5615  0.1904  0.0403
 1580ESO    H2a25958   5.071   1.570   3.005 -1.3782 -0.9615 -0.0995
 1580ESO    H2a25959   5.021   1.695   2.875 -1.7381 -0.9090 -1.7827
 1580ESO    H2a25960   4.911   1.576   2.944 -1.5266 -2.6120 -2.0286
 1581ESO     O125961   2.273   5.037   3.485 -0.0516 -0.3982 -0.0887
 1581ESO     O125962   2.339   4.955   3.278  0.3405  0.1033  0.5820
 1581ESO     O125963   2.153   4.859   3.394  0.5770 -0.1837 -0.2199
 1581ESO      S25964   2.230   4.976   3.364  0.1789  0.0873  0.0179
 1581ESO     O225965   2.122   5.080   3.295  0.0966  0.1427  0.2267
 1581ESO    C1a25966   2.151   5.222   3.293  0.7779 -0.2305 -0.5989
 1581ESO    H1a25967   2.117   5.277   3.384  0.3975 -0.3760  0.5418
 1581ESO    H1a25968   2.258   5.231   3.287  0.3649 -0.0869 -0.5661
 1581ESO    C2a25969   2.093   5.278   3.163  0.6830  0.3449 -0.3902
 1581ESO    H2a25970   2.084   5.380   3.175 -0.1009 -1.0815 -0.7932
 1581ESO    H2a25971   2.000   5.245   3.138  2.8072  2.2458  0.6865
 1581ESO    H2a25972   2.161   5.249   3.082 -0.1873 -1.6878  1.5565
 1582ESO     O125973   4.148   1.677   4.438 -0.4180  0.8152 -0.1153
 1582ESO     O125974   4.247   1.883   4.525  0.2931 -0.2942 -0.0664
 1582ESO     O125975   4.382   1.690   4.489 -0.5511 -0.5652  0.4444
 1582ESO      S25976   4.269   1.761   4.447  0.5664 -0.0619 -0.2747
 1582ESO     O225977   4.303   1.816   4.308 -0.1659  0.0165 -0.5453
 1582ESO    C1a25978   4.205   1.901   4.233  0.4209  1.0778  0.0536
 1582ESO    H1a25979   4.101   1.893   4.269 -3.0469 -2.8148 -2.6574
 1582ESO    H1a25980   4.232   2.005   4.232 -1.1006  0.7743 -0.3398
 1582ESO    C2a25981   4.203   1.843   4.100 -0.2483 -0.2779  0.1881
 1582ESO    H2a25982   4.170   1.740   4.110 -0.8832  2.2382  0.4410
 1582ESO    H2a25983   4.297   1.846   4.047 -1.9338  2.0258  3.5260
 1582ESO    H2a25984   4.120   1.890   4.045  1.3532  4.3780  1.3940
 1583ESO     O125985   3.229   4.812   1.947  0.7001 -0.1631  0.0396
 1583ESO     O125986   3.068   4.941   1.827  0.0294  0.3081  0.0372
 1583ESO     O125987   3.294   5.025   1.872  0.0751 -0.2192  0.5892
 1583ESO      S25988   3.211   4.912   1.848 -0.0804  0.2548  0.0770
 1583ESO     O225989   3.254   4.850   1.704 -0.3426 -0.0301 -0.4506
 1583ESO    C1a25990   3.302   4.941   1.594  0.3088 -0.6780 -0.5168
 1583ESO    H1a25991   3.266   4.907   1.494 -0.5421 -0.1071  0.3526
 1583ESO    H1a25992   3.256   5.034   1.612  0.7219  1.5725  1.9344
 1583ESO    C2a25993   3.449   4.950   1.600  0.1518 -0.8134 -0.6383
 1583ESO    H2a25994   3.483   5.013   1.684 -1.1353  1.6279 -2.3886
 1583ESO    H2a25995   3.496   4.989   1.509  1.1480  1.2054  1.6568
 1583ESO    H2a25996   3.489   4.847   1.617  1.5289 -0.0907  0.7711
 1584ESO     O125997   1.635   2.632   2.413  0.5431 -0.6527 -0.9632
 1584ESO     O125998   1.519   2.749   2.591 -0.2885  0.2582  0.3750
 1584ESO     O125999   1.755   2.721   2.599  0.3385 -0.1068  0.1789
 1584ESO      S26000   1.642   2.733   2.513 -0.0574 -0.0981  0.0823
 1584ESO     O226001   1.659   2.880   2.442 -0.3081 -0.5146 -0.0563
 1584ESO    C1a26002   1.752   2.905   2.332  0.2095 -0.2448 -0.0935
 1584ESO    H1a26003   1.848   2.942   2.366 -0.3877  3.6103  1.4832
 1584ESO    H1a26004   1.777   2.808   2.285 -0.5584 -0.3320  1.5529
 1584ESO    C2a26005   1.689   2.995   2.229  0.1397  0.0328  0.2329
 1584ESO    H2a26006   1.577   2.995   2.244 -0.0109  0.9677  1.3163
 1584ESO    H2a26007   1.712   2.965   2.129 -0.6100  1.5310  1.3593
 1584ESO    H2a26008   1.728   3.095   2.243 -0.6597 -0.4600  0.5068
 1585ESO     O126009   2.795   0.917   3.993  0.7114 -0.1424  0.5137
 1585ESO     O126010   2.691   0.923   3.778  0.0952  0.3679  0.3401
 1585ESO     O126011   2.575   1.011   3.968  0.7274 -0.3385 -0.5607
 1585ESO      S26012   2.704   0.988   3.907  0.0587  0.3093  0.2111
 1585ESO     O226013   2.771   1.122   3.876 -0.4783  0.6671  0.1548
 1585ESO    C1a26014   2.697   1.225   3.798  0.5403 -0.1554 -0.0505
 1585ESO    H1a26015   2.641   1.173   3.723 -2.0306 -0.1052 -0.3203
 1585ESO    H1a26016   2.632   1.283   3.868 -0.9736  1.2190 -0.6365
 1585ESO    C2a26017   2.806   1.315   3.735 -0.5484 -1.1089  0.7263
 1585ESO    H2a26018   2.863   1.368   3.808 -0.1840 -1.6842 -0.4786
 1585ESO    H2a26019   2.753   1.395   3.672 -2.4306  3.4454 -0.2840
 1585ESO    H2a26020   2.878   1.255   3.675  1.6897 -0.6879 -1.8345
 1586ESO     O126021   6.192   0.144   3.953 -1.2691 -0.1902 -0.8687
 1586ESO     O126022   6.374   0.078   4.105  0.4129  1.0139 -0.2395
 1586ESO     O126023   6.375   0.009   3.879  0.1138 -0.4230  0.0192
 1586ESO      S26024   6.333   0.109   3.969  0.1080  0.1483 -0.1164
 1586ESO     O226025   6.410   0.249   3.935 -0.4278 -0.3037  0.0383
 1586ESO    C1a26026   6.386   0.360   4.032 -0.0565 -0.2346  0.5445
 1586ESO    H1a26027   6.300   0.336   4.091 -1.0738  1.8410 -1.0835
 1586ESO    H1a26028   6.467   0.368   4.100 -2.2450 -2.0336 -2.3804
 1586ESO    C2a26029   6.357   0.480   3.944  0.0658  0.2492  0.3483
 1586ESO    H2a26030   6.372   0.574   3.999  1.2850  0.2675 -0.1271
 1586ESO    H2a26031   6.255   0.491   3.908  0.9397  0.8898 -1.0492
 1586ESO    H2a26032   6.430   0.496   3.865 -1.7021 -0.1961  0.9700
 1587ESO     O126033   2.428   2.609   3.483 -0.7687 -0.0463 -0.5446
 1587ESO     O126034   2.630   2.730   3.470 -0.3938  0.6030  0.1557
 1587ESO     O126035   2.626   2.510   3.587 -0.9341 -0.1827  0.2684
 1587ESO      S26036   2.574   2.598   3.487  0.2990 -0.6537  0.0981
 1587ESO     O226037   2.608   2.539   3.347  0.3422 -0.4187 -0.1122
 1587ESO    C1a26038   2.565   2.610   3.223 -0.2595  0.5334  0.0443
 1587ESO    H1a26039   2.527   2.714   3.238  1.7300  1.5600  0.0772
 1587ESO    H1a26040   2.656   2.619   3.156  2.4034 -1.1576  0.3132
 1587ESO    C2a26041   2.466   2.521   3.154  0.1658  0.5710  0.6591
 1587ESO    H2a26042   2.385   2.491   3.211  0.2752 -0.0814 -0.4215
 1587ESO    H2a26043   2.529   2.430   3.134  0.3683 -0.1561  2.6181
 1587ESO    H2a26044   2.420   2.561   3.065  0.4901 -2.3130 -1.0932
 1588ESO     O126045   5.294   4.048   4.266 -0.0741  0.4807 -0.0821
 1588ESO     O126046   5.219   3.837   4.199 -0.1216  0.9355 -0.4878
 1588ESO     O126047   5.085   3.968   4.351  0.4248 -0.6305  0.1728
 1588ESO      S26048   5.177   3.966   4.243 -0.5965  0.0144  0.0079
 1588ESO     O226049   5.098   4.036   4.127  0.2287 -0.4177  0.1511
 1588ESO    C1a26050   4.975   3.978   4.079 -0.1911  0.4819  0.3888
 1588ESO    H1a26051   4.942   3.891   4.130  1.9445 -0.0443  2.6453
 1588ESO    H1a26052   4.898   4.053   4.103 -1.0787  1.1888 -1.3856
 1588ESO    C2a26053   4.995   3.962   3.929  0.2384 -0.2322 -1.2916
 1588ESO    H2a26054   5.043   4.048   3.877  2.9613  1.6470 -2.0362
 1588ESO    H2a26055   4.898   3.952   3.888 -0.8907  2.7624 -0.4009
 1588ESO    H2a26056   5.053   3.877   3.900  1.7871 -2.6440 -0.6008
 1589ESO     O126057   2.878   4.601   3.516  0.3377  0.2632  0.4319
 1589ESO     O126058   2.672   4.638   3.410 -0.2790 -0.1388 -0.0768
 1589ESO     O126059   2.810   4.462   3.340 -0.3577  0.3259  0.1628
 1589ESO      S26060   2.767   4.539   3.449  0.0992  0.0135  0.2479
 1589ESO     O226061   2.696   4.453   3.548  0.3503  0.0062 -0.6760
 1589ESO    C1a26062   2.763   4.326   3.584 -0.3160  0.2605 -0.3849
 1589ESO    H1a26063   2.866   4.342   3.570 -1.7698 -0.5455  2.8098
 1589ESO    H1a26064   2.753   4.304   3.691 -0.6239  1.7579  3.8745
 1589ESO    C2a26065   2.716   4.207   3.506  0.4881 -0.0913  0.6954
 1589ESO    H2a26066   2.735   4.216   3.396 -2.6359  1.7842 -0.2887
 1589ESO    H2a26067   2.603   4.196   3.516 -1.0993  0.1963  0.3491
 1589ESO    H2a26068   2.767   4.121   3.539 -2.9125  3.1134 -3.1796
 1590ESO     O126069   0.926   5.039   1.000  0.3743 -0.3406  0.2852
 1590ESO     O126070   1.063   4.896   1.138  0.1140 -0.7496  0.0695
 1590ESO     O126071   0.875   4.990   1.231 -0.1020 -0.5361 -0.0254
 1590ESO      S26072   0.933   4.940   1.109 -0.2518  0.5970  0.5883
 1590ESO     O226073   0.843   4.820   1.068  0.3796  0.2546 -0.2960
 1590ESO    C1a26074   0.699   4.839   1.047 -0.0976  0.2064 -0.3628
 1590ESO    H1a26075   0.657   4.886   1.136 -0.8370 -2.4544 -1.6245
 1590ESO    H1a26076   0.684   4.910   0.970  1.5114 -1.7460 -0.9760
 1590ESO    C2a26077   0.638   4.705   1.014  0.1488 -0.6617 -0.2118
 1590ESO    H2a26078   0.672   4.625   1.078  1.7452  0.3327  2.0321
 1590ESO    H2a26079   0.653   4.671   0.915  0.3401  0.4887  0.2470
 1590ESO    H2a26080   0.531   4.712   1.038  0.3788  0.5914 -0.6022
 1591ESO     O126081   4.875   3.428   2.819  0.6459  0.0220  0.2085
 1591ESO     O126082   4.872   3.656   2.735 -0.4066 -0.3860  0.2576
 1591ESO     O126083   4.822   3.618   2.964 -0.5444 -0.8566  0.3929
 1591ESO      S26084   4.890   3.570   2.847 -0.7118 -0.3022  0.0958
 1591ESO     O226085   5.042   3.581   2.885 -0.3589  0.4081 -0.7202
 1591ESO    C1a26086   5.095   3.510   2.999  0.1633 -0.0993  0.5442
 1591ESO    H1a26087   5.061   3.562   3.087  0.5894  1.2899 -1.7282
 1591ESO    H1a26088   5.067   3.408   2.999 -0.6134 -1.4684 -0.2648
 1591ESO    C2a26089   5.254   3.524   2.973 -0.1197 -0.3088  0.3229
 1591ESO    H2a26090   5.292   3.461   2.893  0.9414 -0.7609  1.5827
 1591ESO    H2a26091   5.314   3.508   3.064 -0.1520  0.4459  3.8581
 1591ESO    H2a26092   5.278   3.624   2.940 -1.2946  1.3069  0.0104
 1592ESO     O126093   6.293   6.553   6.373 -0.3536 -0.5867 -0.0214
 1592ESO     O126094   6.290   6.788   6.401 -0.2056  0.1315 -0.7794
 1592ESO     O126095   6.214   6.700   6.199 -0.1468  0.2796  0.2627
 1592ESO      S26096   6.224   6.677   6.341  0.3981  0.1335  0.3741
 1592ESO     O226097   6.078   6.677   6.387  0.0613  0.0558  0.1728
 1592ESO    C1a26098   6.053   6.640   6.520 -0.1866  0.1843 -0.0657
 1592ESO    H1a26099   6.066   6.535   6.528  0.9955  0.0228 -1.1349
 1592ESO    H1a26100   6.112   6.713   6.581 -2.0121  1.0130 -1.5330
 1592ESO    C2a26101   5.912   6.682   6.556 -0.2739  0.1436 -0.2092
 1592ESO    H2a26102   5.829   6.621   6.514 -0.5978  1.8654 -1.0455
 1592ESO    H2a26103   5.886   6.783   6.530  0.5173 -1.8064 -0.4843
 1592ESO    H2a26104   5.921   6.683   6.666  0.0211 -0.8912  0.1261
 1593ESO     O126105   1.815   5.890   4.799 -0.7168 -0.1244  0.7776
 1593ESO     O126106   1.919   5.972   4.598  0.3187  0.3571 -0.2704
 1593ESO     O126107   1.718   6.075   4.685 -0.7092 -0.0029  0.5779
 1593ESO      S26108   1.840   6.007   4.716  0.1202  0.3488  0.0011
 1593ESO     O226109   1.927   6.104   4.804  0.1778  0.5926  0.1872
 1593ESO    C1a26110   2.073   6.078   4.839 -0.6383 -0.1004 -0.1024
 1593ESO    H1a26111   2.076   5.979   4.888 -2.8731  0.5554  0.6790
 1593ESO    H1a26112   2.147   6.079   4.753  1.7316 -2.5962 -3.1982
 1593ESO    C2a26113   2.107   6.177   4.946  0.5424  0.5076  0.5491
 1593ESO    H2a26114   2.184   6.136   5.004  0.3266 -0.4937 -0.0978
 1593ESO    H2a26115   2.022   6.202   5.014 -0.2492  0.3051 -1.1013
 1593ESO    H2a26116   2.144   6.271   4.901 -1.9816  0.7051 -0.2890
 1594ESO     O126117   4.153   1.084   1.567  0.6209  0.0094  1.1142
 1594ESO     O126118   4.287   0.890   1.601  0.3062  0.0835  0.2317
 1594ESO     O126119   4.365   1.070   1.469  0.0453  0.8071 -0.3795
 1594ESO      S26120   4.285   1.033   1.577 -0.6965 -0.1584  0.1110
 1594ESO     O226121   4.341   1.100   1.707 -0.3313  0.0232  0.7743
 1594ESO    C1a26122   4.483   1.088   1.730 -0.0392  0.5201  0.3129
 1594ESO    H1a26123   4.512   0.997   1.768  2.0619  2.7665  1.5348
 1594ESO    H1a26124   4.543   1.100   1.639 -0.2694 -0.5400 -0.5788
 1594ESO    C2a26125   4.520   1.185   1.837 -0.3608  0.3166 -0.4278
 1594ESO    H2a26126   4.475   1.281   1.819  2.8202  0.9535  0.2770
 1594ESO    H2a26127   4.625   1.197   1.847 -3.8932  1.6048  1.8182
 1594ESO    H2a26128   4.477   1.147   1.926 -0.4277  0.1805 -2.1989
 1595ESO     O126129   0.467   3.351   0.164  0.5611 -0.4201 -0.2489
 1595ESO     O126130   0.256   3.313   0.261  0.0947  0.6206  0.3320
 1595ESO     O126131   0.372   3.133   0.142 -0.2632 -0.1881  0.4968
 1595ESO      S26132   0.381   3.255   0.220 -0.1324  0.1218 -0.4757
 1595ESO     O226133   0.454   3.209   0.362  0.4579 -0.3185  0.0865
 1595ESO    C1a26134   0.505   3.313   0.454  0.2369  0.2891 -0.7929
 1595ESO    H1a26135   0.594   3.361   0.414  1.7633  0.2935 -0.6176
 1595ESO    H1a26136   0.419   3.385   0.467  0.2424  0.4858  1.1684
 1595ESO    C2a26137   0.541   3.248   0.579  0.2838  0.2797 -0.2241
 1595ESO    H2a26138   0.523   3.311   0.672 -0.0918  1.5264  0.1573
 1595ESO    H2a26139   0.650   3.218   0.586  0.5985  1.5345  0.2203
 1595ESO    H2a26140   0.483   3.158   0.592 -1.2874 -1.0560  1.6131
 1596ESO     O126141   0.747   0.726   0.121 -0.3587 -0.0049 -0.4592
 1596ESO     O126142   0.963   0.712   0.187  0.6651  0.0266  0.0544
 1596ESO     O126143   0.842   0.921   0.209 -0.2971 -0.4439  0.2659
 1596ESO      S26144   0.838   0.777   0.214  0.0451 -0.1020  0.1657
 1596ESO     O226145   0.790   0.731   0.357 -0.3547  0.5866 -0.1983
 1596ESO    C1a26146   0.661   0.779   0.420  0.1190 -0.2231  0.3151
 1596ESO    H1a26147   0.682   0.830   0.516 -3.5584 -1.0566  0.0315
 1596ESO    H1a26148   0.603   0.849   0.356 -0.3802  1.1739 -1.8763
 1596ESO    C2a26149   0.575   0.661   0.456 -0.2412 -0.3312  0.0039
 1596ESO    H2a26150   0.612   0.606   0.539  0.0593 -3.0243 -1.9116
 1596ESO    H2a26151   0.565   0.590   0.377  2.3877 -0.7141  2.9332
 1596ESO    H2a26152   0.480   0.706   0.487  0.5377  0.7122 -1.3362
 1597ESO     O126153   0.319   6.224   5.284 -0.7396  0.4224  0.8950
 1597ESO     O126154   0.252   5.997   5.256 -0.5976  0.2868 -0.9825
 1597ESO     O126155   0.350   6.073   5.463  0.4434  0.2555  0.1858
 1597ESO      S26156   0.266   6.108   5.350  0.4216  0.3549 -0.1222
 1597ESO     O226157   0.128   6.131   5.415 -0.4406 -0.9747 -0.2077
 1597ESO    C1a26158   0.036   6.189   5.325 -0.0692  0.1148  0.0166
 1597ESO    H1a26159   0.087   6.224   5.235  3.0625 -0.1404 -0.5764
 1597ESO    H1a26160  -0.041   6.120   5.296 -1.5289  1.5547  3.2131
 1597ESO    C2a26161  -0.036   6.310   5.386 -0.1982 -0.4611  0.4096
 1597ESO    H2a26162   0.031   6.385   5.419 -1.6230  1.3417  0.8776
 1597ESO    H2a26163  -0.115   6.282   5.456  0.3134 -1.2331  1.1359
 1597ESO    H2a26164  -0.091   6.365   5.302  0.7332 -0.0252 -0.5516
 1598ESO     O126165   1.102   1.739   5.720  0.4024 -0.3052 -0.2284
 1598ESO     O126166   1.213   1.731   5.505 -0.1877 -0.1197 -0.3029
 1598ESO     O126167   1.335   1.664   5.706  0.1325  0.1927 -0.6480
 1598ESO      S26168   1.203   1.677   5.642 -0.0777 -0.1865  0.0676
 1598ESO     O226169   1.147   1.536   5.619  0.2137 -0.0916 -0.1310
 1598ESO    C1a26170   1.023   1.520   5.544  0.5844  0.0131  0.1665
 1598ESO    H1a26171   0.951   1.595   5.578  1.4140  0.3608 -0.6784
 1598ESO    H1a26172   1.044   1.538   5.436 -3.1676  2.2094 -1.0721
 1598ESO    C2a26173   0.978   1.370   5.567  0.3261  1.1799 -0.3592
 1598ESO    H2a26174   1.023   1.336   5.663  2.1867  0.4417 -0.8421
 1598ESO    H2a26175   1.007   1.304   5.482  0.5380 -3.2743 -1.0214
 1598ESO    H2a26176   0.865   1.376   5.581  0.9087 -0.8901 -0.2864
 1599ESO     O126177   0.165   4.572   3.116 -0.1485  0.4070 -0.2660
 1599ESO     O126178   0.112   4.808   3.102  0.4117 -0.4881 -0.1589
 1599ESO     O126179   0.323   4.743   3.179 -0.5056 -0.0727  0.4013
 1599ESO      S26180   0.218   4.708   3.090 -0.3729 -0.1275 -0.2140
 1599ESO     O226181   0.266   4.712   2.940  0.1857 -0.2037  0.0361
 1599ESO    C1a26182   0.393   4.654   2.896 -0.2678  0.0342 -0.1969
 1599ESO    H1a26183   0.474   4.733   2.898  1.8641 -0.6715 -1.3245
 1599ESO    H1a26184   0.418   4.572   2.965  0.6852 -1.0448  2.0661
 1599ESO    C2a26185   0.370   4.628   2.750 -0.4647  0.1599 -0.1627
 1599ESO    H2a26186   0.456   4.582   2.702 -0.0840 -0.4883  1.5829
 1599ESO    H2a26187   0.367   4.722   2.703 -0.7102  1.9460 -1.7768
 1599ESO    H2a26188   0.276   4.569   2.727 -0.5655 -0.9968  2.8969
 1600ESO     O126189   3.711   0.086   3.071 -0.0994  0.4576 -0.1580
 1600ESO     O126190   3.487   0.154   3.093  0.0656  0.1858 -0.0877
 1600ESO     O126191   3.649   0.245   3.232  0.2845 -0.3319  0.2487
 1600ESO      S26192   3.623   0.194   3.103  0.0413  0.5980 -0.0811
 1600ESO     O226193   3.647   0.312   3.008 -0.4859  0.5251  0.0117
 1600ESO    C1a26194   3.722   0.300   2.889 -0.2193  0.1917  0.2449
 1600ESO    H1a26195   3.826   0.286   2.902 -2.0397  0.8878  1.7786
 1600ESO    H1a26196   3.678   0.216   2.820 -0.5602 -0.1523 -1.2468
 1600ESO    C2a26197   3.695   0.424   2.815  0.1239 -0.4508  0.3819
 1600ESO    H2a26198   3.588   0.439   2.794 -0.3761  0.5344  1.3171
 1600ESO    H2a26199   3.762   0.435   2.723 -1.3242 -0.9902  0.1844
 1600ESO    H2a26200   3.720   0.503   2.881  1.7827  3.2130  1.0139
 1601ESO     O126201   3.551   6.370   2.990  0.1615 -0.1645  0.7471
 1601ESO     O126202   3.606   6.257   3.193  0.0721  0.0072  0.1902
 1601ESO     O126203   3.612   6.141   2.979 -0.3262  0.9838  0.4338
 1601ESO      S26204   3.632   6.267   3.049 -0.1204  0.1423 -0.1992
 1601ESO     O226205   3.788   6.310   3.028  0.4547 -0.0733 -0.3675
 1601ESO    C1a26206   3.844   6.426   3.099 -0.1534  0.0363 -0.5692
 1601ESO    H1a26207   3.789   6.447   3.191  0.7451  0.3570 -1.3502
 1601ESO    H1a26208   3.952   6.416   3.122  0.2416 -1.6360  0.8858
 1601ESO    C2a26209   3.830   6.552   3.018  0.8857  0.0708 -0.3277
 1601ESO    H2a26210   3.731   6.576   3.004 -0.2797 -1.4339  0.3423
 1601ESO    H2a26211   3.887   6.537   2.927 -2.1143  1.1997  1.7309
 1601ESO    H2a26212   3.869   6.638   3.069 -0.8260  0.8835 -0.9692
 1602ESO     O126213   6.622   3.898   3.669 -0.1116 -0.0526  0.4862
 1602ESO     O126214   6.426   3.844   3.790 -0.0507  0.0323  0.4134
 1602ESO     O126215   6.516   3.684   3.642 -0.4040 -0.2700 -0.7099
 1602ESO      S26216   6.543   3.793   3.725 -0.0143  0.1433  0.0292
 1602ESO     O226217   6.621   3.725   3.843  0.8318 -0.4620 -0.0038
 1602ESO    C1a26218   6.759   3.691   3.816 -0.2055 -0.4811  0.6285
 1602ESO    H1a26219   6.767   3.631   3.725  0.0209 -2.2681  0.8971
 1602ESO    H1a26220   6.812   3.780   3.802 -0.7218  1.1723  1.9749
 1602ESO    C2a26221   6.805   3.605   3.932 -0.7135 -0.2969 -0.2299
 1602ESO    H2a26222   6.774   3.659   4.023 -3.4657  1.0601  0.5873
 1602ESO    H2a26223   6.910   3.592   3.936  3.3078  1.4848 -2.2891
 1602ESO    H2a26224   6.758   3.515   3.905 -1.0586  1.1506 -0.1590
 1603ESO     O126225   3.442   3.834   1.106 -0.0513 -0.0983  0.0221
 1603ESO     O126226   3.504   3.941   0.898 -0.1948 -0.5261  0.4418
 1603ESO     O126227   3.511   4.063   1.109 -0.3741 -0.1024 -0.2866
 1603ESO      S26228   3.520   3.936   1.042  0.3299 -0.0350 -0.1716
 1603ESO     O226229   3.661   3.884   1.068 -0.6083  0.2564  0.0422
 1603ESO    C1a26230   3.776   3.972   1.049  0.5634  0.1232 -0.1549
 1603ESO    H1a26231   3.775   4.014   0.947  2.4865  3.9630 -0.2955
 1603ESO    H1a26232   3.768   4.047   1.124  1.2193  3.0286  1.6090
 1603ESO    C2a26233   3.904   3.899   1.082 -0.1599 -0.5734  0.7456
 1603ESO    H2a26234   3.926   3.811   1.024  0.0033  0.2867 -0.5585
 1603ESO    H2a26235   3.884   3.871   1.185  2.3395 -0.3170 -1.2318
 1603ESO    H2a26236   3.990   3.962   1.054 -0.4385  1.8931 -0.6896
 1604ESO     O126237   2.364   5.575   5.383  0.4796 -0.7053  0.1935
 1604ESO     O126238   2.321   5.532   5.614 -0.0767 -0.5129 -0.3159
 1604ESO     O126239   2.140   5.567   5.467 -0.6384  0.0585  0.1587
 1604ESO      S26240   2.275   5.516   5.481 -0.1173  0.3072 -0.3116
 1604ESO     O226241   2.265   5.366   5.449  0.1356 -0.0609 -0.1884
 1604ESO    C1a26242   2.377   5.279   5.481 -0.3297 -0.1188 -0.5712
 1604ESO    H1a26243   2.387   5.198   5.406  2.1146  0.5209 -0.5650
 1604ESO    H1a26244   2.463   5.344   5.487  0.3470  2.7388 -2.1385
 1604ESO    C2a26245   2.342   5.211   5.615 -0.6736 -0.0704  0.3646
 1604ESO    H2a26246   2.357   5.271   5.703 -3.4065 -0.5196  0.1572
 1604ESO    H2a26247   2.394   5.117   5.634  1.0326 -0.1690  1.0587
 1604ESO    H2a26248   2.238   5.188   5.618  0.9422 -0.0529 -0.6246
 1605ESO     O126249   1.301   1.919   6.329 -0.2873 -0.7454  0.0331
 1605ESO     O126250   1.069   1.898   6.299  0.1815  0.3564 -0.2673
 1605ESO     O126251   1.176   1.803   6.495 -0.0959 -0.1254 -0.1495
 1605ESO      S26252   1.173   1.908   6.396  0.3761 -0.2742  0.0993
 1605ESO     O226253   1.150   2.050   6.472 -0.5717  0.1281  0.1126
 1605ESO    C1a26254   1.123   2.162   6.389  0.1809  0.2754 -0.3571
 1605ESO    H1a26255   1.191   2.167   6.303 -1.7726  2.0742 -2.6112
 1605ESO    H1a26256   1.023   2.150   6.351  1.3007  2.9694  1.0434
 1605ESO    C2a26257   1.139   2.289   6.471 -0.1488  0.6689 -0.5470
 1605ESO    H2a26258   1.128   2.380   6.408  0.8671 -2.0417 -1.3197
 1605ESO    H2a26259   1.233   2.280   6.525 -1.5664 -0.8202  3.1367
 1605ESO    H2a26260   1.063   2.297   6.547 -1.4625 -1.4972 -2.4442
 1606ESO     O126261   5.808   5.367   1.928 -0.0418 -0.2544  0.0866
 1606ESO     O126262   5.938   5.474   1.759  0.2788  0.3140  0.4077
 1606ESO     O126263   5.806   5.605   1.905 -0.2322 -0.1886 -0.2152
 1606ESO      S26264   5.883   5.483   1.893  0.0414  0.2091  0.1553
 1606ESO     O226265   6.005   5.500   1.997 -0.5164 -0.3766  0.0713
 1606ESO    C1a26266   5.963   5.507   2.139  0.3826  0.5285  0.3659
 1606ESO    H1a26267   5.857   5.491   2.139 -1.1615  0.0251 -0.5496
 1606ESO    H1a26268   6.018   5.425   2.182  0.0445 -0.5932 -1.5952
 1606ESO    C2a26269   6.018   5.632   2.197  0.4959 -0.4854 -0.0466
 1606ESO    H2a26270   6.054   5.606   2.296  1.0046  0.5164 -4.2211
 1606ESO    H2a26271   5.937   5.706   2.205  1.2694  0.9276  0.6329
 1606ESO    H2a26272   6.106   5.673   2.144  1.7384 -0.2127 -0.6540
 1607ESO     O126273   1.375   4.215   0.801 -0.0233 -0.2284 -0.1663
 1607ESO     O126274   1.139   4.224   0.801 -0.1769 -0.2879  0.4045
 1607ESO     O126275   1.257   4.134   1.000  0.0523 -0.4981  0.0615
 1607ESO      S26276   1.258   4.226   0.885  0.1693 -0.4426 -0.0459
 1607ESO     O226277   1.259   4.374   0.944  0.3501 -0.3583 -0.1439
 1607ESO    C1a26278   1.295   4.488   0.854 -0.4864 -0.0971  0.0154
 1607ESO    H1a26279   1.294   4.450   0.753  3.9551  0.6837  0.5832
 1607ESO    H1a26280   1.219   4.567   0.869  0.0341  0.8619  0.5114
 1607ESO    C2a26281   1.427   4.545   0.893  0.0138  0.0422  0.2789
 1607ESO    H2a26282   1.418   4.593   0.990  1.8743 -1.0960 -1.7804
 1607ESO    H2a26283   1.458   4.618   0.815  0.7389 -0.0892 -1.3646
 1607ESO    H2a26284   1.504   4.470   0.907 -1.1630 -0.5414 -1.2174
 1608ESO     O126285   0.665   1.341   2.417  0.2981 -0.3083 -0.3094
 1608ESO     O126286   0.592   1.301   2.189  0.1155  0.1312  0.7283
 1608ESO     O126287   0.806   1.216   2.261 -0.0546  0.0725 -0.2045
 1608ESO      S26288   0.666   1.252   2.302 -0.3863 -0.3299 -0.1666
 1608ESO     O226289   0.599   1.116   2.344  0.2089  0.3492  0.1401
 1608ESO    C1a26290   0.644   1.047   2.461  0.4818  0.2150  0.4211
 1608ESO    H1a26291   0.751   1.046   2.457 -1.9233  3.4338  0.1018
 1608ESO    H1a26292   0.619   1.106   2.548  2.3311  0.3652  1.6940
 1608ESO    C2a26293   0.579   0.914   2.473 -0.4985  0.1777 -0.5140
 1608ESO    H2a26294   0.578   0.864   2.374 -0.2126  0.2303  0.1492
 1608ESO    H2a26295   0.473   0.928   2.508  1.0825  1.0229  0.7981
 1608ESO    H2a26296   0.635   0.849   2.542  2.6501  0.4554 -1.6299
 1609ESO     O126297   3.333   6.523   2.481 -0.1358  0.4798  0.1539
 1609ESO     O126298   3.155   6.371   2.515 -0.3220 -0.3989  0.9783
 1609ESO     O126299   3.321   6.383   2.682  0.1521 -0.2808 -0.4290
 1609ESO      S26300   3.250   6.457   2.576  0.4171 -0.0403 -0.0543
 1609ESO     O226301   3.181   6.574   2.658  0.0154 -0.0125  0.6440
 1609ESO    C1a26302   3.115   6.668   2.566  0.2542 -0.2049 -0.2506
 1609ESO    H1a26303   3.187   6.703   2.502 -0.3488  2.3857  1.2668
 1609ESO    H1a26304   3.031   6.615   2.510  0.1679 -1.1716 -1.5999
 1609ESO    C2a26305   3.054   6.776   2.646 -1.0091  0.1689 -0.1060
 1609ESO    H2a26306   3.003   6.859   2.599 -1.0559 -0.1471  2.0342
 1609ESO    H2a26307   3.111   6.822   2.729  0.9087  0.5895  2.4202
 1609ESO    H2a26308   2.979   6.718   2.703 -0.1821 -2.9750 -0.9475
 1610ESO     O126309   1.669   3.123   5.957 -0.1672  0.6132  0.3959
 1610ESO     O126310   1.883   3.147   5.852  0.1205  0.4373  0.5356
 1610ESO     O126311   1.850   2.987   6.029 -0.0983 -0.6695 -0.1514
 1610ESO      S26312   1.793   3.058   5.918  0.0657 -0.6724  0.3132
 1610ESO     O226313   1.756   2.941   5.816 -0.6064  0.1640  0.4008
 1610ESO    C1a26314   1.866   2.848   5.786 -0.1334  0.7756 -0.5394
 1610ESO    H1a26315   1.950   2.906   5.738  1.0373 -2.1788  0.7136
 1610ESO    H1a26316   1.909   2.802   5.875  0.6022  1.7545 -0.0584
 1610ESO    C2a26317   1.790   2.741   5.704 -0.6873  0.0363 -0.0826
 1610ESO    H2a26318   1.849   2.653   5.671 -0.5801 -0.9507 -2.0451
 1610ESO    H2a26319   1.744   2.790   5.623 -0.5520  1.4399 -1.9291
 1610ESO    H2a26320   1.713   2.695   5.763  3.7947 -1.9857 -4.4731
 1611ESO     O126321   3.426   5.912   3.668  0.3860 -0.3189 -0.6245
 1611ESO     O126322   3.586   5.923   3.493 -0.1837  0.1855 -0.6288
 1611ESO     O126323   3.526   5.713   3.591  0.3815 -1.0022 -0.0723
 1611ESO      S26324   3.484   5.845   3.557 -0.2136 -0.2333 -0.2840
 1611ESO     O226325   3.367   5.825   3.460 -0.2645  0.4565 -0.1975
 1611ESO    C1a26326   3.309   5.950   3.404 -0.0637  0.2530  0.0039
 1611ESO    H1a26327   3.299   6.024   3.480  1.7228 -0.2834  0.1492
 1611ESO    H1a26328   3.378   5.988   3.324 -0.8915 -4.8449  1.9940
 1611ESO    C2a26329   3.176   5.900   3.355  0.2517 -0.4915  0.3066
 1611ESO    H2a26330   3.185   5.821   3.278 -2.5130 -0.7816 -2.4160
 1611ESO    H2a26331   3.116   5.975   3.306 -0.8524  1.3674  0.9514
 1611ESO    H2a26332   3.126   5.854   3.443 -0.7534 -0.9635 -0.7525
 1612ESO     O126333   3.449   5.738   2.566  0.6959  0.2241 -0.6555
 1612ESO     O126334   3.575   5.866   2.723 -0.2018  0.1820  0.4108
 1612ESO     O126335   3.502   5.637   2.780  0.1259 -0.0633 -0.0186
 1612ESO      S26336   3.545   5.731   2.675 -0.0175  0.1474  0.0241
 1612ESO     O226337   3.676   5.674   2.612  0.4804  0.2451  0.2056
 1612ESO    C1a26338   3.796   5.664   2.691  0.1515  0.4227 -0.9487
 1612ESO    H1a26339   3.858   5.748   2.669  0.1857  0.3199 -0.5341
 1612ESO    H1a26340   3.774   5.654   2.798  0.5949  1.0433 -0.8848
 1612ESO    C2a26341   3.864   5.531   2.655  0.4144 -0.4609  0.0942
 1612ESO    H2a26342   3.802   5.445   2.680  0.4670  3.2825  0.7072
 1612ESO    H2a26343   3.966   5.517   2.697  3.6164 -0.0258  4.6433
 1612ESO    H2a26344   3.877   5.518   2.554 -0.8071 -2.9063  0.8163
 1613ESO     O126345   0.931   3.110   2.027  0.2843 -0.2779 -0.3279
 1613ESO     O126346   1.040   3.040   2.231 -0.1529  0.7805  0.0763
 1613ESO     O126347   0.931   2.883   2.096 -0.3048 -0.6367  0.1899
 1613ESO      S26348   1.005   3.009   2.097 -0.0340  0.1493  0.1299
 1613ESO     O226349   1.142   2.980   2.015 -0.1220 -0.1517  0.8372
 1613ESO    C1a26350   1.231   2.881   2.071  0.2755 -0.5178 -0.2569
 1613ESO    H1a26351   1.260   2.922   2.174  2.6410 -0.0267  1.9480
 1613ESO    H1a26352   1.176   2.792   2.071 -0.8562  1.5120 -2.3644
 1613ESO    C2a26353   1.348   2.868   1.977  0.0559 -0.5091  0.4286
 1613ESO    H2a26354   1.416   2.799   2.015 -0.3519 -0.6402  0.9916
 1613ESO    H2a26355   1.401   2.964   1.964  2.2854 -2.4737 -0.1853
 1613ESO    H2a26356   1.321   2.827   1.880  1.0732 -0.7374 -0.5962
 1614ESO     O126357   6.504   0.297   1.380  0.3095  0.1951 -0.0791
 1614ESO     O126358   6.547   0.532   1.331 -0.3726 -0.4024 -0.4275
 1614ESO     O126359   6.404   0.402   1.189  0.4336 -0.1570 -0.0453
 1614ESO      S26360   6.455   0.420   1.322 -0.1542  0.1789 -0.1841
 1614ESO     O226361   6.323   0.450   1.397  0.1815 -0.4117 -0.0714
 1614ESO    C1a26362   6.263   0.570   1.382  0.1370 -0.0254  0.3475
 1614ESO    H1a26363   6.328   0.646   1.339  2.1092  1.9794  1.4244
 1614ESO    H1a26364   6.183   0.548   1.315  1.0992  5.4045 -1.1591
 1614ESO    C2a26365   6.212   0.619   1.521  0.2336 -0.1422  1.1398
 1614ESO    H2a26366   6.167   0.718   1.514  1.1409  0.1343 -1.5543
 1614ESO    H2a26367   6.288   0.618   1.599  1.3305 -0.8088 -1.3204
 1614ESO    H2a26368   6.135   0.552   1.555  0.0667  1.0921  2.6275
 1615ESO     O126369   2.599   1.517   0.036  0.3153  0.0262 -0.4647
 1615ESO     O126370   2.716   1.644   0.206 -0.0298  0.5171  0.1952
 1615ESO     O126371   2.753   1.688  -0.027  0.3123  0.3122  0.6296
 1615ESO      S26372   2.665   1.636   0.070 -0.2197  0.1853  0.1960
 1615ESO     O226373   2.544   1.736   0.081  0.2500 -0.0779 -0.7865
 1615ESO    C1a26374   2.460   1.792  -0.028  0.6421  0.6337 -0.1555
 1615ESO    H1a26375   2.450   1.899  -0.010  0.8791  0.1731  1.2741
 1615ESO    H1a26376   2.501   1.762  -0.123 -1.9046 -0.9736 -1.9145
 1615ESO    C2a26377   2.328   1.734  -0.011 -0.2996 -0.7272  0.7350
 1615ESO    H2a26378   2.309   1.642  -0.067  0.8600  0.0946  1.3224
 1615ESO    H2a26379   2.244   1.801  -0.037  1.6285  0.1373  0.9644
 1615ESO    H2a26380   2.315   1.713   0.093 -0.1527 -1.4888  0.6519
 1616ESO     O126381   6.637   5.546   3.808 -0.0515  0.1448 -0.1218
 1616ESO     O126382   6.396   5.536   3.835 -0.5840  0.0515 -1.0279
 1616ESO     O126383   6.527   5.333   3.790  0.3816  0.1683 -0.2979
 1616ESO      S26384   6.524   5.464   3.850 -0.3022 -0.2006 -0.1236
 1616ESO     O226385   6.543   5.445   4.005  0.0793  0.0277  0.0752
 1616ESO    C1a26386   6.674   5.412   4.060  0.4560  1.4284 -0.2038
 1616ESO    H1a26387   6.679   5.300   4.079  0.5727 -0.2486 -1.5818
 1616ESO    H1a26388   6.745   5.457   3.992 -1.5934  2.2429 -1.2530
 1616ESO    C2a26389   6.692   5.482   4.190  0.1498  0.4703 -0.2581
 1616ESO    H2a26390   6.799   5.468   4.218  0.3617  1.1035  0.6022
 1616ESO    H2a26391   6.624   5.435   4.257 -0.9712 -2.2552 -0.1349
 1616ESO    H2a26392   6.660   5.585   4.175  3.7207  1.1647  0.1739
 1617ESO     O126393   0.305   0.559   1.227  0.0904 -0.5664 -0.4829
 1617ESO     O126394   0.085   0.662   1.177  0.2077 -0.5387  0.2327
 1617ESO     O126395   0.282   0.766   1.105 -0.0740 -0.2791 -0.6760
 1617ESO      S26396   0.221   0.641   1.137  0.4710 -0.0315  0.4818
 1617ESO     O226397   0.230   0.563   0.999 -0.5000  0.3557 -1.0192
 1617ESO    C1a26398   0.157   0.592   0.880 -0.0318  0.3016 -0.1580
 1617ESO    H1a26399   0.051   0.566   0.889 -0.1739 -2.7938 -1.6677
 1617ESO    H1a26400   0.161   0.692   0.854  1.3058  0.0312  1.7251
 1617ESO    C2a26401   0.211   0.513   0.764 -0.1270 -0.7684  0.4136
 1617ESO    H2a26402   0.198   0.408   0.799  1.1548 -0.3541  1.9686
 1617ESO    H2a26403   0.319   0.532   0.749  0.0427 -0.0521  3.1639
 1617ESO    H2a26404   0.159   0.531   0.670  1.1112  0.5986 -3.0180
 1618ESO     O126405   6.764   0.468   4.877  0.1675  0.5520 -0.0609
 1618ESO     O126406   6.862   0.625   5.026  0.1864 -0.2084 -0.1685
 1618ESO     O126407   6.973   0.563   4.826 -0.2135 -0.1232  0.7745
 1618ESO      S26408   6.851   0.584   4.888 -0.0692  0.1699 -0.1603
 1618ESO     O226409   6.783   0.703   4.811 -0.2773  0.2710  0.1190
 1618ESO    C1a26410   6.642   0.727   4.829  0.1272 -0.3230 -0.3155
 1618ESO    H1a26411   6.610   0.763   4.734 -0.2301 -0.7847 -1.2665
 1618ESO    H1a26412   6.578   0.642   4.862  3.9109 -3.3785  0.7951
 1618ESO    C2a26413   6.633   0.848   4.928 -0.5763  0.3635 -0.0715
 1618ESO    H2a26414   6.686   0.839   5.023 -3.2544  2.0950  1.1606
 1618ESO    H2a26415   6.532   0.878   4.950 -1.8577 -1.1672  2.5953
 1618ESO    H2a26416   6.667   0.933   4.875 -0.4976 -0.0198 -1.9192
 1619ESO     O126417   3.897   2.357   1.921 -0.0553  0.3260 -0.3479
 1619ESO     O126418   3.684   2.468   1.888 -0.7370  0.0603 -0.2638
 1619ESO     O126419   3.873   2.584   1.956  0.7016 -0.0848 -0.1564
 1619ESO      S26420   3.827   2.475   1.878 -0.3751  0.4368  0.0418
 1619ESO     O226421   3.868   2.488   1.726 -0.5145  0.2706  0.3612
 1619ESO    C1a26422   3.813   2.406   1.624 -0.4706 -0.1664  0.3361
 1619ESO    H1a26423   3.885   2.335   1.579 -1.7645 -0.8947  1.2132
 1619ESO    H1a26424   3.738   2.340   1.670  2.0446 -0.9667  0.8146
 1619ESO    C2a26425   3.754   2.502   1.518 -0.0499  0.6927  0.4169
 1619ESO    H2a26426   3.720   2.456   1.424 -0.2488  0.2770  0.4503
 1619ESO    H2a26427   3.819   2.578   1.478 -1.7796 -0.1414 -2.3751
 1619ESO    H2a26428   3.672   2.564   1.553  0.4144  1.0137 -0.4825
 1620ESO     O126429   0.410   1.301   4.079 -0.4367 -0.0413 -0.8957
 1620ESO     O126430   0.537   1.200   4.254 -0.7006  0.0694  0.5042
 1620ESO     O126431   0.470   1.072   4.060  0.0739 -0.5424 -0.3586
 1620ESO      S26432   0.508   1.200   4.113  0.1005  0.6740 -0.2026
 1620ESO     O226433   0.644   1.245   4.050 -0.1599  0.8718  0.4244
 1620ESO    C1a26434   0.643   1.224   3.906  0.2738 -0.3157  0.1257
 1620ESO    H1a26435   0.692   1.126   3.881 -0.2226  0.4776 -0.9398
 1620ESO    H1a26436   0.533   1.221   3.873  1.6032 -2.9424 -1.4343
 1620ESO    C2a26437   0.719   1.338   3.835 -0.0767 -0.0706  0.1723
 1620ESO    H2a26438   0.723   1.311   3.727 -0.3005 -0.5549 -0.8677
 1620ESO    H2a26439   0.834   1.343   3.866 -0.2435  1.0786 -0.6321
 1620ESO    H2a26440   0.668   1.434   3.842  0.6275 -0.3927 -0.0858
 1621ESO     O126441   6.410   2.537   4.584  0.1309  0.1761  0.0810
 1621ESO     O126442   6.639   2.554   4.509 -0.3643 -0.1653  0.4031
 1621ESO     O126443   6.525   2.342   4.508  0.3477  0.3271  0.5826
 1621ESO      S26444   6.511   2.488   4.492  0.1827  0.0342  0.3743
 1621ESO     O226445   6.471   2.500   4.345  0.1735  0.0522 -0.2430
 1621ESO    C1a26446   6.472   2.627   4.285  0.2681  0.2045  0.3904
 1621ESO    H1a26447   6.396   2.691   4.329  1.1106  1.2117  1.6706
 1621ESO    H1a26448   6.568   2.677   4.303 -0.4748  1.1238 -0.7634
 1621ESO    C2a26449   6.434   2.607   4.139  0.6945  0.8044  0.1426
 1621ESO    H2a26450   6.522   2.584   4.069 -0.1786  2.4192  0.0624
 1621ESO    H2a26451   6.404   2.709   4.109  0.2896  0.7161  1.3934
 1621ESO    H2a26452   6.352   2.527   4.125  2.9389 -2.9243 -0.6332
 1622ESO     O126453   3.767   0.352   0.215  0.5170  0.2543  0.0929
 1622ESO     O126454   3.650   0.435   0.402  0.3490 -0.9223 -0.1933
 1622ESO     O126455   3.637   0.548   0.204  0.2477  0.6309 -0.8558
 1622ESO      S26456   3.649   0.417   0.263 -0.0360 -0.0512  0.3263
 1622ESO     O226457   3.516   0.339   0.225 -0.2665  0.6129  0.1408
 1622ESO    C1a26458   3.517   0.195   0.244 -0.1178 -0.2999  0.0622
 1622ESO    H1a26459   3.474   0.143   0.165 -2.5251  0.4563  1.5850
 1622ESO    H1a26460   3.620   0.172   0.272  0.2050 -0.3857 -0.1445
 1622ESO    C2a26461   3.425   0.171   0.361 -0.7524  0.6081 -0.0260
 1622ESO    H2a26462   3.414   0.250   0.436 -2.9398 -0.3615  0.3185
 1622ESO    H2a26463   3.463   0.086   0.413  2.4300  0.5469  1.7059
 1622ESO    H2a26464   3.324   0.151   0.332  1.6368  0.5434  0.0941
 1623ESO     O126465   0.843   2.270   3.485 -0.2840  0.0396 -0.1455
 1623ESO     O126466   0.767   2.391   3.302 -0.3135  0.1845  0.6090
 1623ESO     O126467   0.755   2.153   3.300 -0.4522 -0.6220  0.1339
 1623ESO      S26468   0.748   2.274   3.376 -0.4666 -0.1524 -0.3103
 1623ESO     O226469   0.599   2.287   3.429 -0.1036  0.9564  0.2453
 1623ESO    C1a26470   0.543   2.190   3.520 -0.0011 -1.2910 -1.2003
 1623ESO    H1a26471   0.557   2.090   3.488  0.3384  1.1777 -2.6728
 1623ESO    H1a26472   0.585   2.213   3.620 -4.6248 -0.1444 -0.9074
 1623ESO    C2a26473   0.397   2.218   3.541  0.7724  0.3101  0.1886
 1623ESO    H2a26474   0.332   2.222   3.455 -1.0899  0.3028 -0.9964
 1623ESO    H2a26475   0.387   2.315   3.598 -2.0502 -0.1294  1.2241
 1623ESO    H2a26476   0.349   2.140   3.605  1.9209 -0.2593  0.3418
 1624ESO     O126477   0.046   1.291   3.967  0.3117  0.5376 -0.2209
 1624ESO     O126478  -0.164   1.177   4.007 -0.7889  0.1172  0.1258
 1624ESO     O126479   0.030   1.058   3.924  0.0962 -0.1150  0.2795
 1624ESO      S26480  -0.021   1.168   4.004  0.0799 -0.2938 -0.1200
 1624ESO     O226481   0.014   1.132   4.156 -0.3729 -0.0944 -0.1386
 1624ESO    C1a26482   0.157   1.139   4.190 -0.0457  0.7999  0.8088
 1624ESO    H1a26483   0.199   1.061   4.123 -1.2552 -1.3277  1.0209
 1624ESO    H1a26484   0.186   1.239   4.181  0.5799 -1.0448  0.3983
 1624ESO    C2a26485   0.175   1.106   4.340  0.2395 -0.1988  0.7492
 1624ESO    H2a26486   0.163   0.998   4.358 -3.3491  3.1398 -0.1434
 1624ESO    H2a26487   0.094   1.161   4.389 -0.5055 -1.3201 -0.5480
 1624ESO    H2a26488   0.273   1.142   4.378 -0.1995  0.6491  0.8418
 1625ESO     O126489   2.438   2.762   4.420 -0.5527  0.5179  0.0568
 1625ESO     O126490   2.274   2.847   4.569  0.8520 -0.2952 -0.3322
 1625ESO     O126491   2.240   2.862   4.332 -0.3602 -0.0880  0.5283
 1625ESO      S26492   2.297   2.788   4.440 -0.5995 -0.5620 -0.1132
 1625ESO     O226493   2.225   2.650   4.450  0.2488  0.8114 -0.3679
 1625ESO    C1a26494   2.186   2.579   4.329  0.1814 -0.5966  0.3124
 1625ESO    H1a26495   2.085   2.618   4.302 -0.4104 -0.0849 -2.2951
 1625ESO    H1a26496   2.250   2.589   4.244 -1.0560 -0.3789 -1.0989
 1625ESO    C2a26497   2.164   2.439   4.372 -0.1262  0.2447 -0.6746
 1625ESO    H2a26498   2.157   2.385   4.282 -2.4667  0.2575 -0.0752
 1625ESO    H2a26499   2.074   2.418   4.437 -2.6307 -2.3709 -4.0890
 1625ESO    H2a26500   2.249   2.403   4.423  1.4314  0.5934 -0.9871
 1626ESO     O126501   1.775   4.652   3.628  0.0458  0.6861  0.0612
 1626ESO     O126502   1.761   4.606   3.390 -0.2677 -0.5100  0.5237
 1626ESO     O126503   1.879   4.456   3.527  0.9995 -0.1910  0.7805
 1626ESO      S26504   1.775   4.554   3.525 -0.2261  0.3115  0.0949
 1626ESO     O226505   1.648   4.468   3.541  0.5681  0.8881 -0.1214
 1626ESO    C1a26506   1.617   4.405   3.667 -0.2753  0.1753  0.5215
 1626ESO    H1a26507   1.703   4.361   3.720  2.4335 -0.9846  2.2667
 1626ESO    H1a26508   1.590   4.489   3.728 -1.0363  0.7282 -1.8562
 1626ESO    C2a26509   1.511   4.303   3.648 -0.5808 -0.3835 -0.2497
 1626ESO    H2a26510   1.549   4.234   3.572 -3.5741  1.9824  1.9266
 1626ESO    H2a26511   1.418   4.342   3.607 -3.5642  1.7194 -1.6165
 1626ESO    H2a26512   1.493   4.235   3.734  1.3151 -1.8263 -1.4020
 1627ESO     O126513   0.402   2.607   2.494 -0.0079 -0.0996 -0.6785
 1627ESO     O126514   0.283   2.415   2.576 -0.5270 -0.3192  0.1351
 1627ESO     O126515   0.513   2.456   2.630 -0.8771  0.0371 -0.0291
 1627ESO      S26516   0.386   2.514   2.598 -0.0142 -0.0655  0.1777
 1627ESO     O226517   0.335   2.601   2.725 -0.5649  0.0920 -0.3698
 1627ESO    C1a26518   0.205   2.659   2.702  0.2474 -0.9511  0.2628
 1627ESO    H1a26519   0.211   2.735   2.625  1.2005 -3.2367  2.5479
 1627ESO    H1a26520   0.131   2.588   2.675 -0.2140 -2.1317  1.4905
 1627ESO    C2a26521   0.156   2.715   2.834  0.2087 -0.3471  0.1423
 1627ESO    H2a26522   0.062   2.772   2.808 -1.7356 -0.0059  0.1137
 1627ESO    H2a26523   0.235   2.782   2.872 -1.7378  2.2102  1.6253
 1627ESO    H2a26524   0.137   2.628   2.901 -0.9575 -1.2224 -1.6487
 1628ESO     O126525   3.695   2.546   6.283  0.4965 -0.1661 -0.4364
 1628ESO     O126526   3.629   2.722   6.128 -0.2702 -0.2713 -0.1556
 1628ESO     O126527   3.553   2.499   6.087  0.1073 -0.2751  0.5792
 1628ESO      S26528   3.594   2.595   6.187  0.0008  0.3109 -0.0570
 1628ESO     O226529   3.465   2.615   6.268 -0.6309 -0.1216 -0.3892
 1628ESO    C1a26530   3.382   2.509   6.310  0.3375 -1.3202 -0.0636
 1628ESO    H1a26531   3.280   2.526   6.297 -0.4580 -1.0447 -0.7758
 1628ESO    H1a26532   3.404   2.418   6.254  0.2434  0.7192  0.3492
 1628ESO    C2a26533   3.412   2.486   6.461  0.0740 -0.5079  0.3160
 1628ESO    H2a26534   3.353   2.558   6.514  0.8577  1.3602  0.6513
 1628ESO    H2a26535   3.521   2.511   6.472  0.8971 -1.0894 -0.0984
 1628ESO    H2a26536   3.382   2.393   6.497 -0.8171 -1.8251  1.2343
 1629ESO     O126537   6.137   2.208   5.008  0.0482  1.0445 -0.4555
 1629ESO     O126538   5.908   2.216   5.042 -0.2033  0.2593  0.1808
 1629ESO     O126539   6.033   2.415   5.063 -0.3541  0.2156 -0.5408
 1629ESO      S26540   6.020   2.292   4.996  0.2526  0.4093  0.1966
 1629ESO     O226541   6.000   2.327   4.840 -0.0551 -0.0448  0.6088
 1629ESO    C1a26542   6.106   2.388   4.761 -0.0960  0.3306  0.6283
 1629ESO    H1a26543   6.132   2.484   4.809  2.3859 -0.6175  1.6356
 1629ESO    H1a26544   6.187   2.319   4.754 -2.6252  3.2951 -0.2012
 1629ESO    C2a26545   6.047   2.417   4.618  0.1745  0.1706 -0.1174
 1629ESO    H2a26546   6.095   2.495   4.553 -1.4462  0.8228 -2.6121
 1629ESO    H2a26547   5.943   2.446   4.636  0.2988 -2.0291 -0.5113
 1629ESO    H2a26548   6.040   2.334   4.555  1.2574  1.1834 -1.0366
 1630ESO     O126549   4.027   4.414   0.546  0.4317 -0.3261  0.0627
 1630ESO     O126550   4.225   4.280   0.528 -0.6524  0.1649  0.1949
 1630ESO     O126551   4.132   4.359   0.748  0.5309 -0.3592 -0.3833
 1630ESO      S26552   4.109   4.322   0.610 -0.1877  0.3472 -0.1339
 1630ESO     O226553   4.019   4.188   0.622 -0.3251 -0.4178 -0.3266
 1630ESO    C1a26554   3.891   4.194   0.687 -0.0950 -0.7191 -0.0221
 1630ESO    H1a26555   3.900   4.256   0.780  0.8641 -2.7420  2.0184
 1630ESO    H1a26556   3.828   4.241   0.610 -0.2323  2.3535 -1.6863
 1630ESO    C2a26557   3.842   4.053   0.708 -0.1639  0.5177 -0.0303
 1630ESO    H2a26558   3.824   3.989   0.621 -1.2671  0.2559 -0.2620
 1630ESO    H2a26559   3.737   4.061   0.753  0.1231 -0.5528  1.5167
 1630ESO    H2a26560   3.905   4.007   0.784 -1.9758 -0.4404 -0.7074
 1631ESO     O126561   5.171   0.246   5.040 -0.1770  0.0567 -0.2649
 1631ESO     O126562   5.148   0.115   4.850  0.2044  0.1649  0.5431
 1631ESO     O126563   5.106   0.019   5.062  0.2559 -0.5651  0.5677
 1631ESO      S26564   5.103   0.136   4.981  0.3585 -0.3812 -0.0971
 1631ESO     O226565   4.951   0.189   4.978  0.2822 -0.2743  0.0782
 1631ESO    C1a26566   4.857   0.093   4.926 -0.4919  0.1631 -0.1896
 1631ESO    H1a26567   4.899   0.061   4.829  1.0301 -1.3024 -0.4848
 1631ESO    H1a26568   4.848   0.011   5.001 -1.2137 -2.1785 -0.7847
 1631ESO    C2a26569   4.726   0.164   4.891 -0.1077  0.8710 -0.6202
 1631ESO    H2a26570   4.676   0.172   4.987  0.9106 -0.5674  1.3469
 1631ESO    H2a26571   4.663   0.097   4.828 -1.4044  1.6891  3.7092
 1631ESO    H2a26572   4.743   0.266   4.854  0.8412 -0.7176 -1.2307
 1632ESO     O126573   1.775   3.164   5.013  0.6068 -0.3541  0.5267
 1632ESO     O126574   1.970   3.151   5.135  0.3509  0.0680 -0.1148
 1632ESO     O126575   1.780   3.243   5.235  0.0396 -0.2196  0.3679
 1632ESO      S26576   1.831   3.146   5.142  0.1848  0.2424 -0.1908
 1632ESO     O226577   1.796   3.003   5.183 -0.4521 -0.1455  0.1796
 1632ESO    C1a26578   1.657   2.959   5.180  0.0695  0.0192  0.6272
 1632ESO    H1a26579   1.604   3.000   5.270  1.1753 -1.2205 -0.0480
 1632ESO    H1a26580   1.609   2.997   5.094  0.1717  1.2603  0.2384
 1632ESO    C2a26581   1.666   2.811   5.172  0.4366  0.0444 -1.1357
 1632ESO    H2a26582   1.567   2.767   5.167 -0.1079  0.0776  0.0121
 1632ESO    H2a26583   1.725   2.776   5.265 -0.0442 -0.7455 -1.0275
 1632ESO    H2a26584   1.713   2.787   5.070  1.5086  1.1407  1.9120
 1633ESO     O126585   4.737   3.174   5.234 -0.0418 -0.3443 -0.0407
 1633ESO     O126586   4.719   3.269   5.447  0.0237 -0.4001  0.2587
 1633ESO     O126587   4.712   3.410   5.252 -0.5587  0.4682  0.3775
 1633ESO      S26588   4.683   3.278   5.309 -0.2039 -0.0553  0.1062
 1633ESO     O226589   4.526   3.254   5.302  0.3523 -0.3844  0.4618
 1633ESO    C1a26590   4.436   3.354   5.352  0.8348  0.6468  0.0501
 1633ESO    H1a26591   4.489   3.424   5.414 -0.6374  1.3076  3.1898
 1633ESO    H1a26592   4.389   3.412   5.275  3.0846 -1.1183 -2.0643
 1633ESO    C2a26593   4.333   3.266   5.427 -0.0728  0.0134  0.0918
 1633ESO    H2a26594   4.264   3.325   5.488 -0.3324  2.6103  3.1106
 1633ESO    H2a26595   4.387   3.196   5.489  0.6420 -1.5822 -2.8092
 1633ESO    H2a26596   4.274   3.209   5.355 -2.5030 -1.0795 -1.2720
 1634ESO     O126597   2.342   6.496   2.433  0.3824  0.7711 -0.0984
 1634ESO     O126598   2.511   6.418   2.579 -0.1561  0.1362  0.2363
 1634ESO     O126599   2.423   6.272   2.408  0.1203  0.4563  0.2137
 1634ESO      S26600   2.448   6.405   2.453 -0.0409 -0.3068  0.0118
 1634ESO     O226601   2.562   6.444   2.357  0.2105  0.0770  0.0251
 1634ESO    C1a26602   2.619   6.572   2.343 -0.6950 -0.1932 -0.0932
 1634ESO    H1a26603   2.615   6.583   2.235 -1.1169 -2.1018 -0.0533
 1634ESO    H1a26604   2.563   6.651   2.384 -0.2069 -0.7926  0.6202
 1634ESO    C2a26605   2.763   6.569   2.395  0.5700  0.0691 -0.6625
 1634ESO    H2a26606   2.764   6.548   2.497 -3.1950 -0.1276 -0.5889
 1634ESO    H2a26607   2.810   6.665   2.384  0.4854 -0.7483  0.7060
 1634ESO    H2a26608   2.825   6.488   2.347  0.6586  1.0625 -0.5796
 1635ESO     O126609   4.658   2.836   3.348 -0.0092 -0.6508  0.1920
 1635ESO     O126610   4.760   2.985   3.505  0.2650  0.0777 -0.5319
 1635ESO     O126611   4.854   2.767   3.467  0.0294 -0.0790 -0.4277
 1635ESO      S26612   4.780   2.874   3.413 -0.1696 -0.1008  0.2180
 1635ESO     O226613   4.871   2.935   3.301  0.3057 -0.3217 -0.1559
 1635ESO    C1a26614   4.942   2.859   3.207 -0.2825 -1.0830  0.2785
 1635ESO    H1a26615   5.054   2.870   3.221  0.1622  3.1650  1.0087
 1635ESO    H1a26616   4.911   2.756   3.209  1.8402  0.9569  0.3898
 1635ESO    C2a26617   4.900   2.914   3.074 -0.3592  0.6633  0.2961
 1635ESO    H2a26618   4.791   2.916   3.066 -3.0042 -1.2097 -0.1409
 1635ESO    H2a26619   4.930   2.851   2.992 -3.0601  1.0606 -4.1802
 1635ESO    H2a26620   4.945   3.011   3.081 -0.2755 -0.4725 -0.2848
 1636ESO     O126621   3.119   3.915   2.289 -0.2859  0.3196  0.2954
 1636ESO     O126622   3.161   3.819   2.077  0.3779  0.3800  0.0546
 1636ESO     O126623   3.280   4.021   2.149  0.0872  0.4647 -0.4524
 1636ESO      S26624   3.215   3.897   2.183  0.1886  0.1307 -0.2826
 1636ESO     O226625   3.331   3.815   2.249 -0.2650  0.2689 -0.3118
 1636ESO    C1a26626   3.398   3.866   2.362 -0.6672 -0.2852  0.9194
 1636ESO    H1a26627   3.506   3.889   2.331  2.1705 -0.8206 -0.0952
 1636ESO    H1a26628   3.342   3.959   2.389 -0.8533 -1.8791 -2.1747
 1636ESO    C2a26629   3.390   3.767   2.474  0.0092 -0.5425 -0.9909
 1636ESO    H2a26630   3.472   3.788   2.540  0.2785  1.2993 -0.1323
 1636ESO    H2a26631   3.403   3.668   2.436  0.0657 -2.1833  2.1946
 1636ESO    H2a26632   3.295   3.766   2.521  1.9088  2.0122  2.6503
 1637ESO     O126633   2.625   0.573   2.497  0.2232 -0.0418 -0.0082
 1637ESO     O126634   2.723   0.434   2.329  0.0141  0.7080  0.3657
 1637ESO     O126635   2.825   0.638   2.389 -0.1270  0.1182 -0.4451
 1637ESO      S26636   2.744   0.530   2.431 -0.0171  0.0816  0.2003
 1637ESO     O226637   2.820   0.460   2.554 -0.1047  0.3684  0.2329
 1637ESO    C1a26638   2.863   0.537   2.670  1.1987 -0.3001  0.0128
 1637ESO    H1a26639   2.926   0.619   2.634 -0.7781  1.2307 -1.1421
 1637ESO    H1a26640   2.781   0.585   2.723  1.2151 -0.0923 -0.0106
 1637ESO    C2a26641   2.944   0.449   2.769 -0.0379 -0.2474 -0.2346
 1637ESO    H2a26642   2.991   0.368   2.712 -0.7426  1.8202 -0.3768
 1637ESO    H2a26643   2.887   0.396   2.847 -0.1675  2.8819  1.4001
 1637ESO    H2a26644   3.027   0.511   2.814  1.7267  1.3259 -0.2273
 1638ESO     O126645   0.186   0.174   1.896 -0.0281  0.0464  0.1258
 1638ESO     O126646   0.357   0.239   2.040 -0.0037 -0.1965 -0.9011
 1638ESO     O126647   0.141   0.167   2.128 -0.1087 -0.6339  0.5974
 1638ESO      S26648   0.241   0.152   2.026  0.1425  0.0488  0.3465
 1638ESO     O226649   0.279  -0.003   2.041 -0.0905  0.1835  0.2647
 1638ESO    C1a26650   0.378  -0.060   1.953 -1.0230  0.1083  0.2952
 1638ESO    H1a26651   0.363  -0.031   1.848  0.7390 -0.5033 -0.7146
 1638ESO    H1a26652   0.479  -0.028   1.983  0.5371  0.3851  1.9693
 1638ESO    C2a26653   0.377  -0.211   1.973 -0.1478  0.5902  0.7438
 1638ESO    H2a26654   0.273  -0.244   1.996 -1.3917 -2.0371  1.1301
 1638ESO    H2a26655   0.438  -0.235   2.053 -2.4425 -0.3649 -3.2122
 1638ESO    H2a26656   0.409  -0.264   1.885 -0.2570 -0.6022 -1.5081
 1639ESO     O126657   6.013   1.310   4.260  0.1663 -0.0693  0.1362
 1639ESO     O126658   5.914   1.103   4.274  0.2565  0.1145  0.3308
 1639ESO     O126659   5.785   1.290   4.322  0.2586  0.0668  0.3661
 1639ESO      S26660   5.889   1.237   4.242 -0.3203  0.1458 -0.0088
 1639ESO     O226661   5.848   1.249   4.097 -0.2257  1.1151 -0.2232
 1639ESO    C1a26662   5.916   1.182   3.994  0.3186  0.2012 -0.2665
 1639ESO    H1a26663   6.020   1.200   3.996  0.5368 -3.3485  2.6801
 1639ESO    H1a26664   5.889   1.074   3.999 -1.8565 -1.6790  1.7151
 1639ESO    C2a26665   5.854   1.248   3.874  0.1553  0.0169 -0.1889
 1639ESO    H2a26666   5.890   1.189   3.792 -1.0071  0.5102  0.0817
 1639ESO    H2a26667   5.893   1.347   3.858 -2.2221 -1.1174 -1.2372
 1639ESO    H2a26668   5.746   1.245   3.881 -0.8680 -1.1308  0.1809
 1640ESO     O126669   5.292   2.212   1.887  0.0647  0.1302 -0.4911
 1640ESO     O126670   5.109   2.347   1.816 -0.2721 -0.6290 -0.0085
 1640ESO     O126671   5.249   2.239   1.654  0.1760  0.7200 -1.2013
 1640ESO      S26672   5.193   2.234   1.783  0.2606 -0.2183 -0.1181
 1640ESO     O226673   5.107   2.103   1.791  0.0013 -0.4785 -0.1018
 1640ESO    C1a26674   4.993   2.087   1.685  0.4169 -0.4007 -0.6409
 1640ESO    H1a26675   5.026   2.149   1.602  3.0126 -0.8352  0.9859
 1640ESO    H1a26676   4.998   1.983   1.654  2.7495  4.8295  2.3864
 1640ESO    C2a26677   4.863   2.129   1.753 -0.1106 -0.3264 -0.0317
 1640ESO    H2a26678   4.781   2.143   1.673 -3.5965  0.0031 -1.8629
 1640ESO    H2a26679   4.869   2.217   1.814 -1.6380  0.8710  0.3505
 1640ESO    H2a26680   4.834   2.045   1.811  3.3560 -0.0771 -0.9943
 1641ESO     O126681   5.683   1.492   3.594 -0.3519  0.1370  0.5552
 1641ESO     O126682   5.775   1.630   3.424  0.8631 -0.3508  0.2231
 1641ESO     O126683   5.893   1.591   3.627 -0.3449 -0.2964 -0.5020
 1641ESO      S26684   5.803   1.540   3.530  0.2147  0.0928 -0.0351
 1641ESO     O226685   5.872   1.416   3.466 -0.0885 -0.9369 -0.4740
 1641ESO    C1a26686   5.938   1.313   3.536 -0.0880  0.0725  0.1261
 1641ESO    H1a26687   6.021   1.350   3.596 -3.8473 -1.3849 -2.5994
 1641ESO    H1a26688   5.883   1.275   3.613  2.1703  0.8432  1.3609
 1641ESO    C2a26689   5.972   1.206   3.436  0.3586  0.1109  0.8637
 1641ESO    H2a26690   6.047   1.141   3.479  1.7942 -0.0808 -2.2287
 1641ESO    H2a26691   6.016   1.255   3.349 -0.3073 -0.2727 -1.6715
 1641ESO    H2a26692   5.877   1.149   3.411  0.3029  2.4006  0.4027
 1642ESO     O126693   6.315   0.455   2.413  0.5847  0.1553  0.2226
 1642ESO     O126694   6.354   0.365   2.632 -0.0095  0.7404 -0.1248
 1642ESO     O126695   6.503   0.529   2.549 -0.7532  0.0922 -0.1222
 1642ESO      S26696   6.371   0.476   2.544  0.5453 -0.0979 -0.1024
 1642ESO     O226697   6.290   0.599   2.608 -0.0252  1.0340  0.3950
 1642ESO    C1a26698   6.152   0.579   2.648 -0.2018  0.2936  0.2087
 1642ESO    H1a26699   6.089   0.553   2.561 -0.5588 -0.6938  2.0427
 1642ESO    H1a26700   6.146   0.500   2.723  2.9313 -1.9786  0.0864
 1642ESO    C2a26701   6.096   0.709   2.711 -0.7160 -0.0035 -0.8966
 1642ESO    H2a26702   5.999   0.706   2.749  1.8830  2.4619 -0.3759
 1642ESO    H2a26703   6.091   0.785   2.642 -0.4794 -5.1168 -0.1999
 1642ESO    H2a26704   6.162   0.741   2.789 -0.6125 -1.0523 -3.5073
 1643ESO     O126705   5.637   4.774   1.311  0.3480  0.0992 -0.3163
 1643ESO     O126706   5.828   4.829   1.440 -0.1447 -0.7892 -0.7269
 1643ESO     O126707   5.804   4.924   1.217 -0.6860 -0.0095  0.0593
 1643ESO      S26708   5.737   4.873   1.335  0.0938  0.2359 -0.0339
 1643ESO     O226709   5.668   5.003   1.386  0.5278 -0.3985  0.0857
 1643ESO    C1a26710   5.639   5.001   1.530 -0.1474 -0.1246  0.5118
 1643ESO    H1a26711   5.599   4.904   1.559 -3.2593  1.6506  0.6492
 1643ESO    H1a26712   5.732   5.023   1.589 -0.0149  1.2285  2.0383
 1643ESO    C2a26713   5.521   5.095   1.553 -0.6964  0.4054  0.1457
 1643ESO    H2a26714   5.553   5.196   1.531  1.5532 -1.1203 -1.7157
 1643ESO    H2a26715   5.484   5.083   1.662  1.0297  0.8944  1.1010
 1643ESO    H2a26716   5.440   5.070   1.496 -0.5761 -0.3916  3.2383
 1644ESO     O126717   0.086   5.899   0.878 -0.1240  0.0214 -0.0241
 1644ESO     O126718  -0.090   5.738   0.922  0.0469 -0.2953  0.3110
 1644ESO     O126719   0.101   5.753   1.070 -0.4135 -0.2668  0.1244
 1644ESO      S26720   0.015   5.823   0.980  0.0988 -0.5494  0.0709
 1644ESO     O226721  -0.063   5.919   1.067  0.5994  0.8062  0.4014
 1644ESO    C1a26722   0.003   6.047   1.107  0.7364  0.3059 -0.5807
 1644ESO    H1a26723   0.099   6.029   1.149 -0.5406 -0.7227 -0.5614
 1644ESO    H1a26724   0.011   6.106   1.015  0.6109 -0.8317  0.4122
 1644ESO    C2a26725  -0.086   6.119   1.214 -0.6060 -0.4873 -0.6117
 1644ESO    H2a26726  -0.128   6.050   1.285  1.5066  1.8603  1.1201
 1644ESO    H2a26727  -0.162   6.171   1.155  2.2066  1.0566 -1.5288
 1644ESO    H2a26728  -0.036   6.203   1.264 -1.7755 -1.7215 -0.1138
 1645ESO     O126729   6.174   5.376   0.830 -0.0270  0.1526 -0.8981
 1645ESO     O126730   6.369   5.263   0.760  0.2852  0.5354 -0.4724
 1645ESO     O126731   6.267   5.189   0.962  0.3016  0.0939  0.1156
 1645ESO      S26732   6.247   5.251   0.834  0.0820  0.1548  0.0602
 1645ESO     O226733   6.159   5.143   0.754 -0.2526 -0.1904 -0.2564
 1645ESO    C1a26734   6.174   5.144   0.611  0.3463  0.5618 -0.4520
 1645ESO    H1a26735   6.226   5.225   0.574 -2.6997 -3.6867 -2.4272
 1645ESO    H1a26736   6.226   5.049   0.583  0.4027 -0.2406  3.5804
 1645ESO    C2a26737   6.035   5.125   0.550  0.2511  1.0042  0.1396
 1645ESO    H2a26738   5.976   5.220   0.557 -1.4184 -0.2312  1.6089
 1645ESO    H2a26739   5.981   5.048   0.603 -0.7713  0.0989 -1.3542
 1645ESO    H2a26740   6.034   5.085   0.449 -0.3594  1.7973 -2.1119
 1646ESO     O126741   0.112   0.048   6.528 -0.1245  0.4506 -0.4391
 1646ESO     O126742  -0.041  -0.021   6.699 -0.5852  0.2913  0.0637
 1646ESO     O126743   0.026   0.214   6.687 -0.8342  0.4065  0.3069
 1646ESO      S26744   0.006   0.086   6.616 -0.5324 -0.1356  0.1504
 1646ESO     O226745  -0.117   0.118   6.515 -0.0470  0.0155  0.1210
 1646ESO    C1a26746  -0.095   0.227   6.416  0.6743 -0.8435  0.5888
 1646ESO    H1a26747  -0.064   0.322   6.476  1.2735  1.8757  0.4326
 1646ESO    H1a26748  -0.020   0.198   6.340  0.6574  0.9614 -1.3147
 1646ESO    C2a26749  -0.219   0.245   6.344  0.7542 -0.4186 -1.4236
 1646ESO    H2a26750  -0.239   0.171   6.261 -3.1073 -4.2437 -0.2064
 1646ESO    H2a26751  -0.233   0.342   6.310  1.2568 -2.0565  0.2652
 1646ESO    H2a26752  -0.307   0.232   6.404  0.1624  2.1954  1.0559
 1647ESO     O126753   0.294   0.611   2.780  0.0927  0.2712  0.6261
 1647ESO     O126754   0.130   0.513   2.926 -0.1220 -0.0213  0.3408
 1647ESO     O126755   0.202   0.745   2.956 -0.8435 -0.0622  0.5163
 1647ESO      S26756   0.181   0.635   2.867 -0.5473 -0.0616 -0.0208
 1647ESO     O226757   0.064   0.671   2.771 -0.3402 -0.3580  0.7319
 1647ESO    C1a26758   0.072   0.808   2.710 -0.1248  0.7112 -0.4925
 1647ESO    H1a26759   0.020   0.880   2.773  0.3192  1.8580  0.6851
 1647ESO    H1a26760   0.176   0.846   2.703 -1.0974 -0.2543  2.4234
 1647ESO    C2a26761   0.010   0.786   2.577  0.5567  0.3377 -0.5092
 1647ESO    H2a26762  -0.019   0.885   2.541  0.3429  1.3865 -1.3524
 1647ESO    H2a26763  -0.073   0.719   2.584  0.7722 -2.3101 -0.0484
 1647ESO    H2a26764   0.078   0.743   2.513 -1.5051  0.8705  2.5002
 1648ESO     O126765   0.954   0.441   2.497 -0.3446 -0.2799 -0.6017
 1648ESO     O126766   0.780   0.412   2.334 -0.6351 -0.2441  0.0992
 1648ESO     O126767   0.846   0.627   2.410 -0.5054 -0.0805 -0.3983
 1648ESO      S26768   0.888   0.495   2.381  0.1776  0.2468  0.2630
 1648ESO     O226769   0.992   0.506   2.269  0.0731  0.8155 -0.4725
 1648ESO    C1a26770   1.033   0.386   2.199  0.3927  0.8380  0.1695
 1648ESO    H1a26771   0.961   0.305   2.218 -1.9297  0.0522  0.7431
 1648ESO    H1a26772   1.041   0.402   2.089 -0.3078 -0.8640  0.4709
 1648ESO    C2a26773   1.170   0.333   2.224 -0.1198  0.1430 -0.3770
 1648ESO    H2a26774   1.228   0.423   2.202 -0.6287  1.0072 -0.7429
 1648ESO    H2a26775   1.203   0.257   2.160 -0.5956  1.6730 -2.8360
 1648ESO    H2a26776   1.194   0.309   2.326 -2.7144 -0.5649  0.4578
 1649ESO     O126777   6.584   6.325   3.714 -0.0685 -0.0974  0.6950
 1649ESO     O126778   6.490   6.295   3.498 -0.0607  0.1484 -0.6840
 1649ESO     O126779   6.466   6.127   3.665 -0.2443  0.0799  0.1188
 1649ESO      S26780   6.480   6.262   3.638 -0.0851 -0.0659 -0.2986
 1649ESO     O226781   6.338   6.319   3.686  0.2223  0.7227  0.0583
 1649ESO    C1a26782   6.295   6.462   3.734 -0.2325  0.3741 -0.1151
 1649ESO    H1a26783   6.358   6.536   3.680 -0.8013  2.4798  1.1152
 1649ESO    H1a26784   6.194   6.481   3.722 -0.0123 -0.0609  3.1352
 1649ESO    C2a26785   6.329   6.478   3.882  0.8824 -0.1967  0.4390
 1649ESO    H2a26786   6.298   6.573   3.918  0.8975 -3.4787 -0.1942
 1649ESO    H2a26787   6.435   6.467   3.892 -0.6245  3.7501 -0.2417
 1649ESO    H2a26788   6.284   6.394   3.938  0.2842 -1.8390  3.2623
 1650ESO     O126789   6.767   4.529   6.011 -0.3502  0.3117  0.1467
 1650ESO     O126790   6.743   4.338   6.144 -0.2595  0.0817 -0.3330
 1650ESO     O126791   6.617   4.364   5.949  0.9910 -0.2620 -0.3334
 1650ESO      S26792   6.739   4.391   6.015 -0.3183  0.0083 -0.0314
 1650ESO     O226793   6.854   4.317   5.938  0.2149  0.0650  0.4030
 1650ESO    C1a26794   6.857   4.176   5.923 -0.5131 -0.3124 -0.9308
 1650ESO    H1a26795   6.782   4.132   5.995 -1.9677  0.4193 -1.3390
 1650ESO    H1a26796   6.838   4.142   5.819 -1.1525 -0.4895  2.7036
 1650ESO    C2a26797   6.991   4.140   5.965  1.0764 -0.4402  0.0868
 1650ESO    H2a26798   6.994   4.046   6.022 -1.8835 -1.3595  1.1543
 1650ESO    H2a26799   7.020   4.219   6.032  0.2518 -5.1421  2.2314
 1650ESO    H2a26800   7.056   4.133   5.882 -0.6205  0.3540  1.5553
 1651ESO     O126801   3.987   2.469   2.800 -0.1350 -0.1401  0.0189
 1651ESO     O126802   4.094   2.283   2.693  0.3919  0.6339 -0.1253
 1651ESO     O126803   4.149   2.509   2.622 -0.3639  0.5370  0.1702
 1651ESO      S26804   4.104   2.423   2.731 -0.0418  0.1994  0.2028
 1651ESO     O226805   4.208   2.422   2.848 -0.5480 -0.8956 -0.2921
 1651ESO    C1a26806   4.312   2.525   2.848  0.9737  0.3230  0.7274
 1651ESO    H1a26807   4.278   2.617   2.794  0.2737 -0.0414 -1.7474
 1651ESO    H1a26808   4.336   2.554   2.949  0.1389  0.4429 -0.5588
 1651ESO    C2a26809   4.443   2.469   2.786  0.0886  0.5580 -0.4942
 1651ESO    H2a26810   4.467   2.388   2.844 -2.1257 -0.7221 -0.6864
 1651ESO    H2a26811   4.518   2.550   2.777  2.4225  1.7284 -1.6873
 1651ESO    H2a26812   4.433   2.424   2.682  1.2389 -0.1685  0.8906
 1652ESO     O126813   1.130   5.992   1.349 -0.4969  0.1529  0.3030
 1652ESO     O126814   1.078   5.852   1.526 -0.5381 -0.0178 -0.1578
 1652ESO     O126815   1.183   6.057   1.579 -0.6192 -0.3723 -0.4310
 1652ESO      S26816   1.097   5.984   1.490 -0.1568 -0.2287  0.1798
 1652ESO     O226817   0.953   6.045   1.489 -0.2946 -0.2222  0.1107
 1652ESO    C1a26818   0.932   6.191   1.497 -0.3071 -0.7701 -0.0020
 1652ESO    H1a26819   1.021   6.245   1.467 -0.8199  1.2190  0.3087
 1652ESO    H1a26820   0.852   6.209   1.420  1.0551 -0.1957 -1.7933
 1652ESO    C2a26821   0.881   6.227   1.633 -0.3639 -0.3841 -0.5590
 1652ESO    H2a26822   0.961   6.234   1.703 -0.6297 -1.8314 -2.0117
 1652ESO    H2a26823   0.805   6.154   1.671 -1.4466  0.8012 -5.4394
 1652ESO    H2a26824   0.843   6.331   1.624 -0.9449  2.9729  1.8666
 1653ESO     O126825   4.154   5.220   4.056  0.0926  0.5754 -0.3475
 1653ESO     O126826   4.017   5.251   4.245  0.1512 -0.1937 -0.0315
 1653ESO     O126827   4.173   5.073   4.245  0.1045 -0.3704  0.7357
 1653ESO      S26828   4.144   5.210   4.200  0.0472  0.2528  0.2679
 1653ESO     O226829   4.255   5.296   4.264 -0.2187  0.0678 -0.3177
 1653ESO    C1a26830   4.233   5.428   4.308  0.6956  0.1151 -1.0770
 1653ESO    H1a26831   4.138   5.465   4.274 -0.5443 -2.1947 -0.4010
 1653ESO    H1a26832   4.229   5.418   4.425  1.8584  2.7862  2.7924
 1653ESO    C2a26833   4.349   5.504   4.265 -0.6477 -0.0213  0.4764
 1653ESO    H2a26834   4.361   5.479   4.164  0.4062  0.9430  0.6305
 1653ESO    H2a26835   4.442   5.471   4.311  0.3663  0.8231 -0.9593
 1653ESO    H2a26836   4.328   5.610   4.269  3.3460 -2.2163  1.0542
 1654ESO     O126837   4.783   4.930   1.466 -0.2931  0.2234  0.0092
 1654ESO     O126838   4.770   4.951   1.227  0.4041 -0.1004 -0.4705
 1654ESO     O126839   4.630   5.077   1.373 -1.0139 -0.1508  0.5637
 1654ESO      S26840   4.757   5.019   1.355 -0.5365  0.1248  0.2841
 1654ESO     O226841   4.862   5.134   1.356  0.3672  0.2135 -0.5540
 1654ESO    C1a26842   4.829   5.262   1.300 -0.3995  0.3598  0.4087
 1654ESO    H1a26843   4.913   5.300   1.247 -0.4416 -1.3264  1.6346
 1654ESO    H1a26844   4.740   5.255   1.235  0.0707  1.8657  0.5541
 1654ESO    C2a26845   4.797   5.362   1.404 -0.2864  0.2228  0.5644
 1654ESO    H2a26846   4.884   5.376   1.470  0.8995  0.3623  2.5207
 1654ESO    H2a26847   4.714   5.332   1.458  1.3238  0.5039  2.3991
 1654ESO    H2a26848   4.773   5.460   1.362  0.4841 -0.6520 -1.3102
 1655ESO     O126849   6.096   3.271   3.922 -0.0769 -0.3506 -0.0433
 1655ESO     O126850   5.995   3.474   3.979  0.2564  0.3236  0.1241
 1655ESO     O126851   5.880   3.326   3.839  0.2659 -0.4584 -0.4246
 1655ESO      S26852   5.973   3.335   3.946 -0.1283 -0.0483 -0.2622
 1655ESO     O226853   5.917   3.267   4.070  0.3107  0.3762 -0.3687
 1655ESO    C1a26854   5.778   3.307   4.104  0.4890  0.6686  0.1827
 1655ESO    H1a26855   5.766   3.417   4.090 -1.6070  0.8659  1.4762
 1655ESO    H1a26856   5.702   3.253   4.043 -0.9134  1.0208  1.5581
 1655ESO    C2a26857   5.750   3.280   4.255  0.1981  0.1441  0.3062
 1655ESO    H2a26858   5.785   3.179   4.279  0.0428 -2.3152  0.6357
 1655ESO    H2a26859   5.646   3.291   4.282  1.4454  2.2681  1.9650
 1655ESO    H2a26860   5.801   3.349   4.322 -3.0534  1.7217  0.8929
 1656ESO     O126861   3.184   2.242   6.325 -0.1828 -0.2592 -0.3281
 1656ESO     O126862   3.153   2.014   6.362 -0.0263  0.1107  0.1992
 1656ESO     O126863   3.207   2.094   6.142 -0.0952  0.0355  0.2080
 1656ESO      S26864   3.227   2.112   6.284 -0.0068  0.1475 -0.1093
 1656ESO     O226865   3.377   2.102   6.315 -0.1542 -0.3923  0.0488
 1656ESO    C1a26866   3.477   2.155   6.226  0.0733 -0.0256 -0.2393
 1656ESO    H1a26867   3.505   2.082   6.154  1.8971 -1.8997  0.6397
 1656ESO    H1a26868   3.441   2.247   6.179 -1.1194 -1.6602 -0.7835
 1656ESO    C2a26869   3.591   2.190   6.319  1.0435 -0.2978 -0.8516
 1656ESO    H2a26870   3.682   2.224   6.270 -0.2881  2.6510  0.6282
 1656ESO    H2a26871   3.622   2.110   6.389  2.1212  2.9363 -0.0917
 1656ESO    H2a26872   3.562   2.274   6.386 -0.3207  2.4810  0.3242
 1657ESO     O126873   4.870   5.600   4.258 -0.2518  0.1572 -0.2146
 1657ESO     O126874   4.655   5.632   4.157  0.0417 -0.8003  0.6156
 1657ESO     O126875   4.729   5.414   4.237  0.2122  0.2925 -0.3729
 1657ESO      S26876   4.732   5.555   4.251  0.3761 -0.0696  0.3258
 1657ESO     O226877   4.667   5.589   4.397 -0.0614  0.1203  0.3417
 1657ESO    C1a26878   4.696   5.496   4.506  0.0932 -0.2686 -0.4190
 1657ESO    H1a26879   4.697   5.392   4.476 -2.6931  1.4523 -0.9232
 1657ESO    H1a26880   4.792   5.512   4.557 -1.3476 -1.1166 -0.3122
 1657ESO    C2a26881   4.584   5.516   4.612 -0.3543 -0.4342  0.0239
 1657ESO    H2a26882   4.588   5.615   4.668 -1.7188  1.2432  0.5416
 1657ESO    H2a26883   4.600   5.437   4.684  0.7812 -1.4258 -1.6347
 1657ESO    H2a26884   4.482   5.509   4.582 -0.1116  0.8407 -1.5158
 1658ESO     O126885   5.414   0.139   3.420 -0.8969  0.0266  0.0168
 1658ESO     O126886   5.619   0.042   3.339 -0.3696  0.0141  0.1941
 1658ESO     O126887   5.621   0.252   3.445  0.5549 -0.8975  0.3859
 1658ESO      S26888   5.557   0.126   3.436  0.3971 -0.4354  0.5055
 1658ESO     O226889   5.580   0.057   3.566  0.0632 -0.6776  0.2302
 1658ESO    C1a26890   5.698   0.074   3.648 -1.0115 -0.1121  0.7862
 1658ESO    H1a26891   5.783   0.014   3.621  2.8229 -0.3298  1.2329
 1658ESO    H1a26892   5.730   0.177   3.671 -1.3784  1.9662  1.2568
 1658ESO    C2a26893   5.656   0.033   3.790  0.5487  0.0981  0.4117
 1658ESO    H2a26894   5.733   0.036   3.868  0.2186  0.1844  3.6550
 1658ESO    H2a26895   5.628  -0.072   3.780 -0.2408 -0.0139 -1.5419
 1658ESO    H2a26896   5.580   0.098   3.826  1.1380  0.7702 -0.8714
 1659ESO     O126897   2.416   0.141   0.900 -0.2309  0.2845  0.0540
 1659ESO     O126898   2.323   0.248   0.713  0.4355 -0.2563  0.4792
 1659ESO     O126899   2.417   0.383   0.883 -0.1028  0.1030 -0.0271
 1659ESO      S26900   2.424   0.255   0.815  0.0059 -0.4479 -0.5241
 1659ESO     O226901   2.561   0.252   0.728 -0.0733 -0.4805 -0.4985
 1659ESO    C1a26902   2.579   0.343   0.618 -0.1153 -1.0972  0.1714
 1659ESO    H1a26903   2.519   0.306   0.533 -1.5301 -3.5921 -2.8883
 1659ESO    H1a26904   2.539   0.442   0.630 -2.1436 -1.6194  1.5500
 1659ESO    C2a26905   2.732   0.342   0.587 -0.1748  0.9373  0.9168
 1659ESO    H2a26906   2.753   0.408   0.509  1.3145 -1.4798 -1.0164
 1659ESO    H2a26907   2.781   0.241   0.575 -0.9202  0.0090 -0.2374
 1659ESO    H2a26908   2.780   0.390   0.671 -0.6279  0.1560  1.7113
 1660ESO     O126909   6.331   4.579   2.770 -0.4008 -0.0190 -0.0050
 1660ESO     O126910   6.371   4.492   2.547  0.1637 -0.5245 -0.5151
 1660ESO     O126911   6.154   4.588   2.608  0.4065  0.0947  0.8788
 1660ESO      S26912   6.299   4.583   2.630 -0.1509 -0.1224  0.0036
 1660ESO     O226913   6.340   4.727   2.588  0.2537  0.2254  1.2541
 1660ESO    C1a26914   6.342   4.767   2.452  0.3986  0.4704 -0.3401
 1660ESO    H1a26915   6.429   4.830   2.428 -1.1350  2.5124 -2.9411
 1660ESO    H1a26916   6.354   4.690   2.375  1.0834 -2.1336  0.5701
 1660ESO    C2a26917   6.216   4.849   2.420 -0.1631  0.1615  0.5967
 1660ESO    H2a26918   6.189   4.925   2.488 -0.0089  0.0948 -1.8091
 1660ESO    H2a26919   6.128   4.781   2.417 -1.9916 -0.6258  1.0581
 1660ESO    H2a26920   6.230   4.893   2.318 -1.6614  2.9846 -0.2311
 1661ESO     O126921   4.272   3.293   3.045  0.5856 -0.1290 -0.5353
 1661ESO     O126922   4.200   3.437   2.872 -0.1680 -0.0702 -0.2967
 1661ESO     O126923   4.098   3.230   2.902  0.2745 -0.4152 -0.4332
 1661ESO      S26924   4.165   3.337   2.963  0.1390 -0.0328 -0.0942
 1661ESO     O226925   4.063   3.403   3.068 -0.1481 -0.1209  0.0912
 1661ESO    C1a26926   3.997   3.322   3.165  0.3310  0.6078 -0.1121
 1661ESO    H1a26927   3.924   3.259   3.119  0.2957  0.4275 -2.4476
 1661ESO    H1a26928   4.067   3.262   3.216  0.6666  3.1140  1.4892
 1661ESO    C2a26929   3.927   3.412   3.270  0.0032  0.1835  0.1831
 1661ESO    H2a26930   3.854   3.367   3.337  0.2892  0.7862  1.0557
 1661ESO    H2a26931   3.885   3.497   3.215  1.0249  0.0908 -1.7900
 1661ESO    H2a26932   4.003   3.457   3.332 -0.1408 -1.7581  1.2447
 1662ESO     O126933   0.543   3.777   3.342 -0.0278  0.1066  0.1022
 1662ESO     O126934   0.686   3.686   3.509 -0.3204  0.4295 -0.6140
 1662ESO     O126935   0.686   3.587   3.299  0.0564  0.0816  0.1656
 1662ESO      S26936   0.670   3.710   3.370 -0.5632  0.4820 -0.6853
 1662ESO     O226937   0.784   3.815   3.324  0.9059  1.1074  1.0502
 1662ESO    C1a26938   0.912   3.791   3.386 -0.1727 -0.4025 -0.0126
 1662ESO    H1a26939   0.913   3.841   3.488  0.7023  0.7368  1.5850
 1662ESO    H1a26940   0.930   3.688   3.389 -0.0852 -0.2702 -0.6291
 1662ESO    C2a26941   1.006   3.868   3.288 -0.4089  0.2223 -0.4702
 1662ESO    H2a26942   0.992   3.975   3.316 -1.6349 -0.4110 -0.4130
 1662ESO    H2a26943   0.975   3.851   3.185 -1.4570  0.1553 -1.8782
 1662ESO    H2a26944   1.107   3.847   3.306 -2.0946  1.2751 -2.2748
 1663ESO     O126945   2.371   5.258   6.615  0.3621  0.2492  0.2096
 1663ESO     O126946   2.471   5.466   6.558  0.4403 -0.0946  0.4482
 1663ESO     O126947   2.599   5.270   6.526 -0.1560  0.5132 -0.1875
 1663ESO      S26948   2.465   5.327   6.527  0.0185  0.0447  0.3620
 1663ESO     O226949   2.405   5.317   6.386  0.5689  0.5622  0.3665
 1663ESO    C1a26950   2.362   5.181   6.333 -0.3579  0.2146 -0.5246
 1663ESO    H1a26951   2.444   5.110   6.333  0.9944 -1.3335 -4.8894
 1663ESO    H1a26952   2.280   5.133   6.389 -3.3646  0.4409  2.1267
 1663ESO    C2a26953   2.313   5.185   6.189  0.8738  0.0195 -0.0577
 1663ESO    H2a26954   2.271   5.088   6.164 -0.5505 -0.7076 -2.9925
 1663ESO    H2a26955   2.397   5.202   6.129 -1.0494 -3.5789  1.9626
 1663ESO    H2a26956   2.252   5.268   6.171 -0.6689 -0.6300 -0.1610
 1664ESO     O126957   4.270   5.521   0.110  0.3633  0.5938 -0.4799
 1664ESO     O126958   4.321   5.737   0.017 -0.4178  0.1849  0.5050
 1664ESO     O126959   4.200   5.567  -0.105 -0.0260  0.5670  0.0818
 1664ESO      S26960   4.234   5.626   0.022  0.0785  0.2142 -0.0469
 1664ESO     O226961   4.093   5.675   0.067  0.4282 -0.1991 -0.4268
 1664ESO    C1a26962   4.077   5.797   0.142 -0.4527 -0.2160 -0.2303
 1664ESO    H1a26963   4.010   5.771   0.222  0.9819 -1.1559  1.7718
 1664ESO    H1a26964   4.170   5.825   0.187 -1.1354 -3.9437 -2.5341
 1664ESO    C2a26965   4.016   5.901   0.052  0.6056  0.2478 -0.4259
 1664ESO    H2a26966   4.089   5.951  -0.008  0.7814 -3.3557  0.8094
 1664ESO    H2a26967   3.959   5.965   0.108 -0.8506  0.1185 -1.3709
 1664ESO    H2a26968   3.949   5.853  -0.023 -2.5761  0.4632  1.4511
 1665ESO     O126969   1.339   1.756   4.463  0.1428  0.0032  0.0306
 1665ESO     O126970   1.176   1.654   4.332 -0.2321 -0.0219  0.0064
 1665ESO     O126971   1.250   1.551   4.537 -0.0731 -0.0149 -0.0157
 1665ESO      S26972   1.230   1.671   4.461 -0.1809  0.3637  0.2384
 1665ESO     O226973   1.116   1.750   4.534  0.0667 -0.5695 -0.7466
 1665ESO    C1a26974   1.135   1.783   4.671  0.6445 -0.0978  0.0333
 1665ESO    H1a26975   1.128   1.690   4.739  0.6535 -4.8849 -1.4978
 1665ESO    H1a26976   1.230   1.843   4.686  1.3286 -0.3022  0.3898
 1665ESO    C2a26977   1.016   1.866   4.712 -0.0911  0.2310 -0.1639
 1665ESO    H2a26978   0.996   1.947   4.631  0.0730 -1.3106 -0.2541
 1665ESO    H2a26979   1.031   1.922   4.809  0.9751  2.4013 -2.0735
 1665ESO    H2a26980   0.933   1.805   4.721 -1.1371  0.8047  0.2568
 1666ESO     O126981   1.768   5.919   5.825 -0.0195 -0.1927  0.8731
 1666ESO     O126982   1.904   6.012   5.997  0.2846  0.6226  0.1575
 1666ESO     O126983   1.664   6.033   6.014 -0.3263 -0.4337 -0.1105
 1666ESO      S26984   1.777   5.955   5.964 -0.0817 -0.1343 -0.3964
 1666ESO     O226985   1.764   5.813   6.028  0.0239 -0.4757 -0.8263
 1666ESO    C1a26986   1.810   5.794   6.167  0.1393 -0.6131 -0.3868
 1666ESO    H1a26987   1.901   5.849   6.184 -1.2652  0.1853 -0.7832
 1666ESO    H1a26988   1.723   5.831   6.229  0.3138  0.1490 -0.1402
 1666ESO    C2a26989   1.830   5.645   6.183  0.1705 -0.6224 -0.1876
 1666ESO    H2a26990   1.729   5.599   6.186 -3.2157 -1.9287  0.1830
 1666ESO    H2a26991   1.878   5.618   6.280  0.0527  2.0398  2.1175
 1666ESO    H2a26992   1.882   5.600   6.104 -0.5084 -1.2955 -1.5013
 1667ESO     O126993   2.215   2.193   5.361  0.6843  0.3547  0.0537
 1667ESO     O126994   2.228   2.364   5.182  0.3543 -0.1508 -0.1746
 1667ESO     O126995   2.422   2.241   5.244  0.5863  0.6020 -1.4729
 1667ESO      S26996   2.278   2.239   5.238 -0.2789  0.1392 -0.3239
 1667ESO     O226997   2.258   2.132   5.118 -0.1378  0.2580  0.5062
 1667ESO    C1a26998   2.133   2.073   5.078  0.2354 -0.6447 -0.0528
 1667ESO    H1a26999   2.151   1.966   5.067 -0.3532  0.2625  0.4356
 1667ESO    H1a27000   2.052   2.086   5.151  1.8097 -3.4554 -1.6864
 1667ESO    C2a27001   2.096   2.143   4.952  1.6482 -0.5095  0.1132
 1667ESO    H2a27002   2.099   2.248   4.961 -0.7773  0.2932  1.8577
 1667ESO    H2a27003   1.995   2.110   4.934  1.4806  0.2543  1.8514
 1667ESO    H2a27004   2.139   2.112   4.862  0.5111 -0.2340 -1.3326
 1668ESO     O127005   1.984   4.173   0.639  0.3803  0.2998  0.0421
 1668ESO     O127006   2.203   4.083   0.664 -0.5894 -0.1646  0.2057
 1668ESO     O127007   2.068   4.123   0.857 -0.3666 -0.2207 -0.0635
 1668ESO      S27008   2.070   4.092   0.719 -0.0807  0.3064  0.4543
 1668ESO     O227009   2.002   3.949   0.700  0.9321  0.6066 -0.7340
 1668ESO    C1a27010   2.055   3.831   0.760 -0.1922  0.7300  1.2485
 1668ESO    H1a27011   2.142   3.872   0.809  0.3662 -0.4363 -0.8619
 1668ESO    H1a27012   1.989   3.792   0.834 -1.5230  0.3143 -0.5123
 1668ESO    C2a27013   2.095   3.730   0.646  1.0806 -0.0434  0.6036
 1668ESO    H2a27014   2.117   3.636   0.686  2.3586 -0.9394  0.8801
 1668ESO    H2a27015   2.181   3.768   0.590 -0.5611  0.8430  1.3495
 1668ESO    H2a27016   2.002   3.708   0.585  0.4955  1.1401 -2.4564
 1669ESO     O127017   4.078   6.534   3.362 -0.0431  0.1624 -0.2207
 1669ESO     O127018   4.215   6.335   3.379 -0.6108  0.0460 -0.4969
 1669ESO     O127019   4.297   6.532   3.268  0.5288  0.3730  0.3523
 1669ESO      S27020   4.214   6.481   3.373  0.2414 -0.2517 -0.1211
 1669ESO     O227021   4.255   6.535   3.514  0.1481 -0.2071  0.0083
 1669ESO    C1a27022   4.325   6.450   3.617  0.1559  0.0429  0.1576
 1669ESO    H1a27023   4.256   6.389   3.669 -2.0079  1.1931  0.2815
 1669ESO    H1a27024   4.397   6.384   3.568  4.1780 -0.5944 -2.6158
 1669ESO    C2a27025   4.391   6.551   3.702  0.1662  0.3416  0.2848
 1669ESO    H2a27026   4.464   6.599   3.633 -1.7367 -2.7708 -2.2180
 1669ESO    H2a27027   4.438   6.493   3.784  0.4520 -1.6412  3.0401
 1669ESO    H2a27028   4.327   6.624   3.749 -1.9394  2.3131 -1.7342
 1670ESO     O127029   1.308   5.632   6.451  0.1302 -0.6029  0.0399
 1670ESO     O127030   1.364   5.862   6.431 -0.1168  0.8275 -0.1415
 1670ESO     O127031   1.513   5.697   6.342  0.5629 -0.1583  0.3896
 1670ESO      S27032   1.377   5.732   6.371 -0.2109 -0.0327  0.3389
 1670ESO     O227033   1.300   5.730   6.228  0.4390  0.2276  0.2272
 1670ESO    C1a27034   1.155   5.746   6.225 -0.3105 -0.1119 -0.2067
 1670ESO    H1a27035   1.110   5.670   6.281  2.0126 -0.3691 -0.6914
 1670ESO    H1a27036   1.129   5.848   6.270  0.2044  1.5750  1.2559
 1670ESO    C2a27037   1.108   5.744   6.086  0.6944  0.1544 -0.3254
 1670ESO    H2a27038   1.150   5.657   6.033 -1.6926  1.0211 -2.3952
 1670ESO    H2a27039   1.141   5.835   6.039  0.2097  0.9838 -0.4093
 1670ESO    H2a27040   0.999   5.737   6.072 -1.1533  4.4856  0.7414
 1671ESO     O127041   2.184   2.195   1.539  0.5037 -0.3435  0.1490
 1671ESO     O127042   2.330   2.004   1.526 -0.0309 -0.0853  0.1699
 1671ESO     O127043   2.164   2.013   1.705 -0.3589 -0.5782 -0.8288
 1671ESO      S27044   2.200   2.051   1.568 -0.0600  0.0782  0.1426
 1671ESO     O227045   2.109   1.967   1.470  0.3404  1.2611  0.1353
 1671ESO    C1a27046   1.968   1.972   1.483 -0.2151 -0.1696 -0.7152
 1671ESO    H1a27047   1.926   1.939   1.573 -0.6946  3.7332 -0.0660
 1671ESO    H1a27048   1.948   2.081   1.473 -0.0364  0.2893 -0.7380
 1671ESO    C2a27049   1.899   1.893   1.369  0.0303  0.1030  0.0863
 1671ESO    H2a27050   1.935   1.787   1.358  2.8178 -0.3313  0.8413
 1671ESO    H2a27051   1.921   1.942   1.274  1.7321 -3.9461  0.7220
 1671ESO    H2a27052   1.793   1.891   1.381 -0.3313 -3.3279  0.4435
 1672ESO     O127053   2.093   1.695   0.964  0.2427 -0.1838  0.1729
 1672ESO     O127054   2.031   1.561   0.785  0.2697  0.0039  0.2337
 1672ESO     O127055   2.204   1.718   0.758 -0.1799 -0.2320 -0.0257
 1672ESO      S27056   2.140   1.632   0.847  0.3729  0.1233  0.3365
 1672ESO     O227057   2.250   1.529   0.892 -0.4380  0.0453  0.8962
 1672ESO    C1a27058   2.374   1.585   0.959  0.9116 -0.1094 -0.3748
 1672ESO    H1a27059   2.459   1.565   0.895 -0.4850  1.7230 -1.2396
 1672ESO    H1a27060   2.368   1.691   0.989  1.7332  0.2463  1.6947
 1672ESO    C2a27061   2.383   1.509   1.083 -0.6676 -0.1053  0.5833
 1672ESO    H2a27062   2.300   1.534   1.141 -0.6022 -1.5864  0.5663
 1672ESO    H2a27063   2.473   1.535   1.139 -0.9824  0.0127 -0.7468
 1672ESO    H2a27064   2.394   1.401   1.055 -1.0922 -0.3119 -0.8994
 1673ESO     O127065   4.101   6.471   3.983 -1.0183  0.0394 -0.1923
 1673ESO     O127066   4.087   6.267   4.109 -0.0387 -0.1084  0.4566
 1673ESO     O127067   3.996   6.287   3.889  0.1204  0.3912  0.3645
 1673ESO      S27068   4.106   6.326   3.978  0.0892  0.2180  0.5989
 1673ESO     O227069   4.239   6.280   3.915  0.5632 -0.9165 -0.0571
 1673ESO    C1a27070   4.283   6.143   3.903  0.4238  0.8688  0.3390
 1673ESO    H1a27071   4.386   6.134   3.920  0.4834 -1.3154 -1.0811
 1673ESO    H1a27072   4.230   6.072   3.975 -0.9215 -0.8018  2.2127
 1673ESO    C2a27073   4.248   6.103   3.763  0.6440 -0.3819  0.1406
 1673ESO    H2a27074   4.259   6.187   3.701 -0.8781  2.5812  0.3995
 1673ESO    H2a27075   4.139   6.081   3.764 -0.7862  0.7233 -1.8660
 1673ESO    H2a27076   4.292   6.003   3.729  1.9687  0.9254  0.9380
 1674ESO     O127077   5.450   3.838   6.165  0.1953 -0.5688  0.0389
 1674ESO     O127078   5.425   3.601   6.209 -1.3080  0.1539 -0.1637
 1674ESO     O127079   5.428   3.763   6.386  0.3409 -0.1207  1.0563
 1674ESO      S27080   5.392   3.737   6.249 -0.3051 -0.7275  0.2998
 1674ESO     O227081   5.238   3.755   6.246 -0.0141  0.3713 -0.4482
 1674ESO    C1a27082   5.170   3.706   6.120  0.0848 -0.8463 -0.6333
 1674ESO    H1a27083   5.204   3.756   6.028  2.1457  0.6448 -0.7227
 1674ESO    H1a27084   5.187   3.606   6.100  0.2104  0.3965  2.7604
 1674ESO    C2a27085   5.019   3.719   6.143  0.7739 -0.3280 -0.1314
 1674ESO    H2a27086   4.958   3.708   6.052  2.1178 -0.2381 -1.0522
 1674ESO    H2a27087   4.995   3.811   6.197 -0.9725 -0.0674 -0.2146
 1674ESO    H2a27088   4.981   3.638   6.209  1.7512  0.7119 -2.5618
 1675ESO     O127089   3.717   3.764   3.973 -0.5442  0.3901 -0.5815
 1675ESO     O127090   3.537   3.705   4.115 -0.0051 -0.1931 -0.2543
 1675ESO     O127091   3.757   3.630   4.181 -0.1545  0.0393  0.4448
 1675ESO      S27092   3.677   3.732   4.114  0.4568  0.1653 -0.5278
 1675ESO     O227093   3.710   3.861   4.193 -0.0519  0.3691 -0.4264
 1675ESO    C1a27094   3.621   3.979   4.168  0.5504  0.2062  0.0465
 1675ESO    H1a27095   3.612   4.009   4.065  0.7426  0.0181  0.4445
 1675ESO    H1a27096   3.520   3.957   4.198 -1.3129 -0.9314  3.9311
 1675ESO    C2a27097   3.677   4.096   4.248  0.5456  0.3279 -0.6733
 1675ESO    H2a27098   3.668   4.080   4.356  1.4280 -0.0774 -0.3217
 1675ESO    H2a27099   3.632   4.187   4.212  0.3738 -0.9693 -2.0873
 1675ESO    H2a27100   3.785   4.112   4.232 -1.2857  0.9858 -0.8194
 1676ESO     O127101   2.768   0.124   0.082 -0.5695  0.2546 -0.4174
 1676ESO     O127102   2.639   0.141   0.288  0.3412 -0.0960 -0.1591
 1676ESO     O127103   2.842   0.016   0.279  0.2344 -0.0157  0.8428
 1676ESO      S27104   2.765   0.128   0.227 -0.4628  0.3093  0.3027
 1676ESO     O227105   2.825   0.261   0.272  0.1429  0.2148 -0.0699
 1676ESO    C1a27106   2.960   0.267   0.323  0.1255  0.3689 -0.2220
 1676ESO    H1a27107   2.973   0.356   0.389 -0.1899  3.2462 -0.3907
 1676ESO    H1a27108   2.969   0.180   0.390 -1.5579 -0.4739  0.4746
 1676ESO    C2a27109   3.063   0.262   0.210  0.7906 -0.4318  0.0488
 1676ESO    H2a27110   3.167   0.268   0.248  0.6249  0.8404 -0.4614
 1676ESO    H2a27111   3.052   0.349   0.145 -0.5120 -0.9739  0.2407
 1676ESO    H2a27112   3.052   0.171   0.144  0.8751 -0.6718  0.5759
 1677ESO     O127113   4.490   2.701   6.122  0.0555 -0.3470  0.8599
 1677ESO     O127114   4.387   2.742   5.910  0.5564  0.2421 -0.2841
 1677ESO     O127115   4.613   2.803   5.941  0.4685 -0.2193  0.6241
 1677ESO      S27116   4.508   2.713   5.978 -0.2621 -0.1611  0.0672
 1677ESO     O227117   4.554   2.575   5.924 -0.1771  0.1203  0.5784
 1677ESO    C1a27118   4.487   2.457   5.968  0.2274  0.3186  0.1966
 1677ESO    H1a27119   4.516   2.435   6.067 -2.2173  1.3734 -1.0643
 1677ESO    H1a27120   4.378   2.475   5.975  0.0090 -2.2146  0.1308
 1677ESO    C2a27121   4.528   2.356   5.858  0.8951 -0.1815  0.1258
 1677ESO    H2a27122   4.522   2.252   5.886  0.9089 -0.1712  0.6385
 1677ESO    H2a27123   4.622   2.371   5.817 -2.2038  0.0944  0.2110
 1677ESO    H2a27124   4.467   2.368   5.768 -0.8085 -0.5500 -1.1772
 1678ESO     O127125   4.012   6.800   1.577 -0.4014  0.3726  0.1425
 1678ESO     O127126   3.843   6.655   1.522 -0.0853 -0.1512  0.0314
 1678ESO     O127127   4.040   6.565   1.624  0.2502 -0.6203  0.1659
 1678ESO      S27128   3.949   6.677   1.615  0.0651 -0.1630 -0.0144
 1678ESO     O227129   3.889   6.705   1.750  0.8071  0.1243  0.6394
 1678ESO    C1a27130   3.818   6.601   1.821 -0.5934  0.6423  0.0476
 1678ESO    H1a27131   3.750   6.554   1.750 -0.9406  2.5402 -1.3028
 1678ESO    H1a27132   3.881   6.534   1.880  1.4823  1.7510  1.4233
 1678ESO    C2a27133   3.738   6.672   1.924  0.4991 -0.4009 -0.3653
 1678ESO    H2a27134   3.678   6.599   1.982 -0.5544  0.3741  3.3688
 1678ESO    H2a27135   3.669   6.740   1.881  0.2498 -0.0550 -1.7841
 1678ESO    H2a27136   3.803   6.721   2.000  0.1026 -0.5059  0.4600
 1679ESO     O127137   1.221   3.745   1.890 -0.3900  0.2425  0.3411
 1679ESO     O127138   1.358   3.939   1.895  0.1111 -0.0927  0.0583
 1679ESO     O127139   1.150   3.942   1.797  0.0574 -0.2351 -0.0014
 1679ESO      S27140   1.227   3.883   1.898 -0.0730 -0.6758 -0.0605
 1679ESO     O227141   1.160   3.922   2.035 -0.0433  0.4152 -0.3168
 1679ESO    C1a27142   1.181   3.827   2.145 -0.0782 -0.0476  0.4120
 1679ESO    H1a27143   1.186   3.716   2.117 -1.8553 -1.1190 -2.2213
 1679ESO    H1a27144   1.274   3.845   2.198 -0.2701 -1.5417 -0.7416
 1679ESO    C2a27145   1.070   3.843   2.241  0.2329  0.1015 -0.0871
 1679ESO    H2a27146   1.068   3.937   2.298  0.2098  1.6204 -0.9024
 1679ESO    H2a27147   1.074   3.762   2.313  0.5775  2.4017  3.1519
 1679ESO    H2a27148   0.976   3.840   2.190 -0.5624  0.3622 -2.6811
 1680ESO     O127149   4.913   0.517   0.314 -0.2162 -0.0489  0.0360
 1680ESO     O127150   5.021   0.722   0.392  0.3475 -0.5658  0.4765
 1680ESO     O127151   5.117   0.502   0.443 -0.6483 -0.2368  0.1049
 1680ESO      S27152   5.039   0.583   0.352 -0.1306 -0.3605  0.1390
 1680ESO     O227153   5.125   0.595   0.220  0.3411 -0.0175 -0.4340
 1680ESO    C1a27154   5.251   0.659   0.234  0.7828  0.3002  0.8635
 1680ESO    H1a27155   5.271   0.703   0.335 -3.6980  1.6106 -0.6544
 1680ESO    H1a27156   5.333   0.590   0.203 -1.3404  1.6056 -0.8010
 1680ESO    C2a27157   5.242   0.764   0.128 -0.1134  0.0608  0.0875
 1680ESO    H2a27158   5.181   0.854   0.153  1.8571 -0.7137  1.4295
 1680ESO    H2a27159   5.201   0.722   0.035 -1.4309 -0.1936  1.8094
 1680ESO    H2a27160   5.339   0.805   0.101 -0.9671 -0.7551 -0.8610
 1681ESO     O127161   6.615   5.127   2.665  0.0353 -0.0648 -0.2612
 1681ESO     O127162   6.656   4.994   2.468 -0.0096  0.5330  0.3991
 1681ESO     O127163   6.745   5.215   2.478  0.4817  0.5483  0.3308
 1681ESO      S27164   6.705   5.100   2.551  0.1443  0.0459  0.0890
 1681ESO     O227165   6.838   5.054   2.623 -0.0738  0.4199 -0.5729
 1681ESO    C1a27166   6.966   5.029   2.555  0.3004 -0.4131  0.4819
 1681ESO    H1a27167   6.956   5.035   2.447  2.4198 -0.9681  1.5469
 1681ESO    H1a27168   7.041   5.100   2.585  0.0004  2.5400  0.0929
 1681ESO    C2a27169   7.009   4.887   2.572  0.6789  0.3697 -0.4542
 1681ESO    H2a27170   7.110   4.868   2.534 -0.1670 -1.4291  1.9271
 1681ESO    H2a27171   6.946   4.811   2.525  0.3478  1.2332 -0.6538
 1681ESO    H2a27172   7.017   4.866   2.677  1.8828 -0.1749 -2.1454
 1682ESO     O127173   2.095   3.489   5.856  0.5062 -0.2883 -0.0166
 1682ESO     O127174   2.311   3.569   5.918  0.3499 -0.0729 -0.1823
 1682ESO     O127175   2.254   3.571   5.696 -0.0536  0.3821  0.2686
 1682ESO      S27176   2.204   3.579   5.829  0.1960 -0.0103  0.1392
 1682ESO     O227177   2.149   3.723   5.848  0.0788  0.3067 -0.0656
 1682ESO    C1a27178   2.074   3.787   5.744 -0.2870  0.1254 -0.6452
 1682ESO    H1a27179   2.144   3.850   5.677  1.4781 -0.5621  0.9923
 1682ESO    H1a27180   2.041   3.707   5.679  1.2110 -0.8682 -1.0997
 1682ESO    C2a27181   1.963   3.862   5.810 -0.0796  0.1886 -0.9036
 1682ESO    H2a27182   1.895   3.799   5.867 -0.9063 -0.9389 -2.0363
 1682ESO    H2a27183   1.906   3.923   5.739 -2.4323  1.6480 -0.2537
 1682ESO    H2a27184   2.005   3.930   5.884  0.0884 -1.6825  2.2617
 1683ESO     O127185   4.371   5.689   3.089  0.1699  0.1607 -0.0280
 1683ESO     O127186   4.476   5.676   3.315  0.3839  0.1424 -0.4796
 1683ESO     O127187   4.583   5.781   3.126 -0.2057 -0.0391  0.2976
 1683ESO      S27188   4.456   5.746   3.187 -0.2842  0.1934 -0.0074
 1683ESO     O227189   4.389   5.881   3.224  0.2121  0.7342  0.3840
 1683ESO    C1a27190   4.277   5.885   3.311 -0.0460  0.2729 -0.4696
 1683ESO    H1a27191   4.187   5.899   3.255 -0.3751  0.2597 -2.2321
 1683ESO    H1a27192   4.266   5.790   3.363 -1.9507  1.6451 -2.2927
 1683ESO    C2a27193   4.300   6.002   3.398 -0.2385 -0.2737  0.6925
 1683ESO    H2a27194   4.367   6.077   3.352 -0.9140 -0.9185 -2.6827
 1683ESO    H2a27195   4.350   5.990   3.496 -0.7205  1.3289 -1.6903
 1683ESO    H2a27196   4.206   6.048   3.429 -2.2734  1.9262 -0.6095
 1684ESO     O127197   1.023   4.484   5.886 -0.5221 -0.1487 -0.1478
 1684ESO     O127198   1.082   4.249   5.932 -0.0851 -0.3057 -0.0194
 1684ESO     O127199   1.252   4.418   5.946 -0.7062  0.3202  0.2794
 1684ESO      S27200   1.109   4.386   5.956  0.2049 -0.2383  0.1417
 1684ESO     O227201   1.075   4.407   6.111 -0.0381 -0.5957  0.3562
 1684ESO    C1a27202   1.156   4.333   6.208 -0.1894 -0.1751 -0.4603
 1684ESO    H1a27203   1.187   4.229   6.180  0.2102  2.4321  0.4108
 1684ESO    H1a27204   1.258   4.372   6.214 -0.6531 -0.2026  0.3872
 1684ESO    C2a27205   1.095   4.336   6.339 -0.9251 -0.2288 -0.0720
 1684ESO    H2a27206   1.064   4.439   6.364  2.2327  0.5074  0.2501
 1684ESO    H2a27207   1.168   4.306   6.411 -0.0696 -2.3949 -3.2025
 1684ESO    H2a27208   1.014   4.272   6.338 -0.5712 -0.6212  2.2394
 1685ESO     O127209   5.405   4.121   3.196 -0.2274 -0.2470  0.0814
 1685ESO     O127210   5.336   4.010   3.397 -0.0191 -0.0657 -0.1128
 1685ESO     O127211   5.336   4.249   3.386 -0.1899 -0.4101 -0.2712
 1685ESO      S27212   5.322   4.129   3.311  0.2742  0.4658  0.1986
 1685ESO     O227213   5.173   4.139   3.254 -0.6894  0.0934 -0.0793
 1685ESO    C1a27214   5.062   4.130   3.353 -0.7421 -0.0968  0.2337
 1685ESO    H1a27215   4.998   4.036   3.341  0.3165 -0.4910  1.1429
 1685ESO    H1a27216   5.101   4.121   3.451 -1.7200  2.8140 -1.1373
 1685ESO    C2a27217   4.990   4.267   3.330  0.6888  0.3946 -0.2851
 1685ESO    H2a27218   4.981   4.290   3.223  0.3540  1.8085 -1.0408
 1685ESO    H2a27219   5.043   4.353   3.380 -0.3772  3.2931 -0.5214
 1685ESO    H2a27220   4.884   4.271   3.364 -0.1184  1.0519  1.7469
 1686ESO     O127221   4.300   1.931   1.678 -0.3203 -0.4365  0.3464
 1686ESO     O127222   4.224   1.942   1.903 -0.3067 -0.0053  0.1320
 1686ESO     O127223   4.305   2.147   1.788  0.0286 -0.0064 -0.2243
 1686ESO      S27224   4.243   2.014   1.777  0.2157  0.0550  0.0721
 1686ESO     O227225   4.092   2.032   1.722  0.0854 -0.5058  0.0943
 1686ESO    C1a27226   4.054   2.124   1.613  0.3820  0.4011  0.1995
 1686ESO    H1a27227   3.976   2.200   1.645  3.3891  2.3446 -0.3115
 1686ESO    H1a27228   4.139   2.186   1.594 -0.7250  1.0677  1.7586
 1686ESO    C2a27229   4.010   2.047   1.494 -0.6725 -0.3703  0.3262
 1686ESO    H2a27230   4.081   1.976   1.454 -2.2856 -2.5231 -0.0136
 1686ESO    H2a27231   3.986   2.123   1.416  1.5273 -0.5768  0.3693
 1686ESO    H2a27232   3.918   2.000   1.519 -0.8098 -0.5762 -3.1465
 1687ESO     O127233   3.985   1.126   1.040 -0.3868  0.1446  0.0978
 1687ESO     O127234   3.820   1.301   1.018 -0.0511  0.1722  0.1706
 1687ESO     O127235   4.044   1.325   0.934 -0.4438 -0.5242  0.1062
 1687ESO      S27236   3.935   1.236   0.960 -0.3552  0.0647  0.1404
 1687ESO     O227237   3.898   1.176   0.825  0.3158 -0.4435  0.1713
 1687ESO    C1a27238   4.001   1.107   0.743  0.3948 -0.1122  0.2450
 1687ESO    H1a27239   4.099   1.118   0.797 -0.2292  2.1213 -2.1414
 1687ESO    H1a27240   3.969   1.006   0.723  0.2533  0.7352 -0.7540
 1687ESO    C2a27241   4.003   1.178   0.615 -0.9762 -0.7478  0.3655
 1687ESO    H2a27242   4.003   1.293   0.630  0.3880  2.6557  0.0271
 1687ESO    H2a27243   3.907   1.157   0.553 -0.3075 -1.3399  1.1858
 1687ESO    H2a27244   4.087   1.152   0.545 -1.5773 -0.9426  1.1033
 1688ESO     O127245   5.313   3.626   1.500  0.3873  0.2997  0.0838
 1688ESO     O127246   5.416   3.749   1.663  0.2870  0.3126 -0.3901
 1688ESO     O127247   5.177   3.727   1.670 -0.0635  0.1934 -0.2987
 1688ESO      S27248   5.304   3.666   1.634  0.0370 -0.0207  0.4944
 1688ESO     O227249   5.322   3.537   1.729 -0.2546 -0.4236 -0.4475
 1688ESO    C1a27250   5.290   3.401   1.692  0.0531  0.2302  0.7471
 1688ESO    H1a27251   5.188   3.373   1.722 -0.8867  0.9859  3.9373
 1688ESO    H1a27252   5.313   3.375   1.585 -0.3902 -1.5585 -0.5774
 1688ESO    C2a27253   5.393   3.309   1.762 -0.1822 -0.0111 -0.7494
 1688ESO    H2a27254   5.374   3.205   1.729 -2.3663 -2.8305 -0.5296
 1688ESO    H2a27255   5.391   3.327   1.875 -1.2358  3.3961 -0.8381
 1688ESO    H2a27256   5.489   3.333   1.728 -2.5438 -0.4846  0.8350
 1689ESO     O127257   5.455   2.891   0.372  0.7336 -0.0195 -0.3234
 1689ESO     O127258   5.244   2.975   0.295  0.3391  0.0972  0.1609
 1689ESO     O127259   5.390   3.110   0.430  0.2568  0.1815 -0.3624
 1689ESO      S27260   5.377   3.006   0.333  0.3309 -0.1784 -0.0489
 1689ESO     O227261   5.445   3.060   0.202 -0.3626  0.4066 -0.4274
 1689ESO    C1a27262   5.391   3.183   0.146 -0.1927  0.6149 -0.1173
 1689ESO    H1a27263   5.321   3.233   0.210  1.1470 -1.4316 -0.2680
 1689ESO    H1a27264   5.472   3.249   0.116 -0.1400 -1.7962  1.6331
 1689ESO    C2a27265   5.316   3.156   0.020 -0.0671 -0.6675 -0.4576
 1689ESO    H2a27266   5.256   3.242  -0.002  0.0552  0.4373  0.6216
 1689ESO    H2a27267   5.254   3.069   0.030 -1.6919 -0.3865  0.0498
 1689ESO    H2a27268   5.387   3.135  -0.066  0.8339 -0.2696 -2.1947
 1690ESO     O127269   3.994   6.572   2.665 -0.2065  0.9040 -0.5393
 1690ESO     O127270   4.064   6.402   2.509  0.2552  0.2355  0.3158
 1690ESO     O127271   3.926   6.587   2.425 -0.1880 -0.6040  0.2240
 1690ESO      S27272   4.022   6.540   2.523 -0.1248 -0.1689 -0.4912
 1690ESO     O227273   4.151   6.620   2.499  0.0782 -0.3471  0.7773
 1690ESO    C1a27274   4.188   6.746   2.560 -0.0322 -0.0737 -0.5324
 1690ESO    H1a27275   4.142   6.838   2.520 -0.2829 -2.2515 -3.2166
 1690ESO    H1a27276   4.186   6.746   2.670  0.5273  3.3430  0.6843
 1690ESO    C2a27277   4.333   6.768   2.530  0.0240  1.1132  0.3272
 1690ESO    H2a27278   4.349   6.780   2.428 -0.7240 -0.6950  1.0255
 1690ESO    H2a27279   4.394   6.683   2.575 -0.0038 -2.6197  1.4882
 1690ESO    H2a27280   4.376   6.848   2.589  3.9271 -1.7319  1.1192
 1691ESO     O127281   1.504   6.344   3.303  0.2521 -0.0693  0.2724
 1691ESO     O127282   1.294   6.277   3.395 -0.3184  0.2494  0.0974
 1691ESO     O127283   1.327   6.297   3.162  0.7393  0.4200 -0.0685
 1691ESO      S27284   1.385   6.265   3.284 -0.0016  0.0189  0.3358
 1691ESO     O227285   1.436   6.119   3.281 -0.3078  0.5069 -0.1038
 1691ESO    C1a27286   1.488   6.069   3.412  0.2279  0.1517  0.0800
 1691ESO    H1a27287   1.588   6.023   3.396  0.1477  1.4545 -1.1961
 1691ESO    H1a27288   1.490   6.145   3.494 -1.6543 -5.6264  2.9218
 1691ESO    C2a27289   1.388   5.969   3.464 -0.1308 -0.3775 -0.2659
 1691ESO    H2a27290   1.301   6.022   3.496 -1.0830  0.3794 -0.9596
 1691ESO    H2a27291   1.417   5.930   3.565 -2.2069  0.5159 -0.3466
 1691ESO    H2a27292   1.369   5.885   3.399  0.9660  0.8368  2.4988
 1692ESO     O127293   4.975   4.420   2.467  1.1624 -0.0479 -0.4401
 1692ESO     O127294   5.051   4.201   2.491  0.2175 -0.3010 -0.2538
 1692ESO     O127295   4.824   4.245   2.521  0.0209  0.1567 -0.2321
 1692ESO      S27296   4.941   4.283   2.452  0.5558 -0.1086 -0.3368
 1692ESO     O227297   4.927   4.257   2.299 -0.0148  0.4618 -0.2925
 1692ESO    C1a27298   4.815   4.324   2.238 -0.6970  0.0759 -0.2849
 1692ESO    H1a27299   4.723   4.309   2.287 -2.0839 -0.6670 -0.7689
 1692ESO    H1a27300   4.837   4.431   2.233  1.1905  0.0323  2.1314
 1692ESO    C2a27301   4.811   4.259   2.097 -0.2682  0.4688  0.6903
 1692ESO    H2a27302   4.791   4.152   2.099  1.2643  1.7560  0.7867
 1692ESO    H2a27303   4.904   4.268   2.046 -3.6767  1.3344 -4.2243
 1692ESO    H2a27304   4.738   4.310   2.030 -1.3944  0.0193 -0.1525
 1693ESO     O127305   3.518   4.386   1.391  0.0957  0.4353 -0.4944
 1693ESO     O127306   3.498   4.436   1.627  0.1666  0.2263  0.0379
 1693ESO     O127307   3.512   4.210   1.543 -0.2905 -0.0919 -0.2340
 1693ESO      S27308   3.552   4.345   1.523 -0.6511 -0.4173  0.3105
 1693ESO     O227309   3.707   4.348   1.532 -0.0186 -0.1251  0.2174
 1693ESO    C1a27310   3.769   4.320   1.665 -0.6412  0.7240  0.6348
 1693ESO    H1a27311   3.720   4.372   1.744 -1.2388 -0.6178  2.2437
 1693ESO    H1a27312   3.763   4.212   1.684  0.5191 -2.1580  1.7491
 1693ESO    C2a27313   3.905   4.378   1.660 -1.0260  0.4000 -0.0833
 1693ESO    H2a27314   3.946   4.356   1.764 -1.4383  0.9122 -0.2393
 1693ESO    H2a27315   3.894   4.483   1.647  3.1737  0.0714  0.1467
 1693ESO    H2a27316   3.975   4.335   1.575  1.6828 -1.7207 -0.8905
 1694ESO     O127317   2.469   1.433   2.840 -0.1828  0.4258  0.0685
 1694ESO     O127318   2.520   1.217   2.727  0.0677 -0.3039 -0.1336
 1694ESO     O127319   2.606   1.423   2.645  0.1155 -0.4175  0.0062
 1694ESO      S27320   2.562   1.351   2.757  0.0803  0.3475  0.2497
 1694ESO     O227321   2.690   1.339   2.843  0.1216 -0.3488  0.6184
 1694ESO    C1a27322   2.680   1.272   2.972 -0.0076  0.9220 -0.3972
 1694ESO    H1a27323   2.586   1.223   2.984 -1.8233 -0.5328  0.8192
 1694ESO    H1a27324   2.759   1.204   2.979 -2.1489 -0.8053  0.0141
 1694ESO    C2a27325   2.700   1.385   3.072 -0.7059 -0.3509 -0.2429
 1694ESO    H2a27326   2.616   1.453   3.075 -0.9348  1.5134  0.8708
 1694ESO    H2a27327   2.791   1.446   3.063  1.1451  1.2211  0.1030
 1694ESO    H2a27328   2.700   1.336   3.172  0.1756 -1.1568  1.8309
 1695ESO     O127329   4.459   2.912   3.054 -0.1709  0.5096  0.0541
 1695ESO     O127330   4.435   3.044   2.857 -0.6159  0.7882  0.7943
 1695ESO     O127331   4.481   2.805   2.837 -0.1805 -0.4107 -0.7362
 1695ESO      S27332   4.419   2.910   2.916  0.4489 -0.3127 -0.1366
 1695ESO     O227333   4.270   2.876   2.922  0.6063  0.0560  0.1587
 1695ESO    C1a27334   4.181   2.876   2.798  0.0216  0.0802 -0.6937
 1695ESO    H1a27335   4.209   2.953   2.735 -0.6633  1.4992  1.4674
 1695ESO    H1a27336   4.191   2.778   2.758 -0.2565 -1.1124 -0.6761
 1695ESO    C2a27337   4.032   2.882   2.840  0.2860  0.6826  0.0302
 1695ESO    H2a27338   4.013   2.782   2.880  1.4325  2.2152  0.3731
 1695ESO    H2a27339   3.960   2.891   2.765 -2.3510 -3.3206 -0.8084
 1695ESO    H2a27340   4.016   2.959   2.910  1.4832  1.9491 -0.2144
 1696ESO     O127341   6.255   6.716   0.167  0.1191  0.1501 -0.0750
 1696ESO     O127342   6.169   6.817  -0.023 -0.2342  0.2195 -0.3833
 1696ESO     O127343   6.087   6.609   0.047  0.2832  0.0000  0.0007
 1696ESO      S27344   6.140   6.732   0.088 -0.1074 -0.4027  0.3590
 1696ESO     O227345   6.022   6.793   0.176  0.4055  0.4307  0.1938
 1696ESO    C1a27346   6.044   6.904   0.265 -0.8290 -0.4723  0.5185
 1696ESO    H1a27347   6.012   6.879   0.368 -0.5131 -0.6593 -0.1696
 1696ESO    H1a27348   6.152   6.934   0.268 -1.1539  0.7541 -2.6762
 1696ESO    C2a27349   5.962   7.010   0.193  0.0557  0.6720  0.5853
 1696ESO    H2a27350   5.910   6.975   0.111  2.9338  0.4920  0.8922
 1696ESO    H2a27351   6.022   7.082   0.145  0.7702  0.9552 -0.3537
 1696ESO    H2a27352   5.897   7.058   0.261  0.3939  2.3258 -0.7742
 1697ESO     O127353   5.802   5.603   3.583 -0.0595 -0.0631 -0.0482
 1697ESO     O127354   6.013   5.506   3.611 -0.2318  0.8677 -0.2707
 1697ESO     O127355   5.891   5.453   3.412  0.2764  0.1236 -0.5786
 1697ESO      S27356   5.916   5.550   3.515  0.5244  0.3970 -0.4593
 1697ESO     O227357   5.986   5.668   3.437  0.3510 -0.1473 -0.0883
 1697ESO    C1a27358   5.898   5.752   3.348 -0.2478  0.2939 -0.0385
 1697ESO    H1a27359   5.865   5.695   3.264  0.9271 -3.1847  0.6603
 1697ESO    H1a27360   5.806   5.783   3.408  0.4874  0.4764  1.3291
 1697ESO    C2a27361   5.983   5.869   3.317  0.0613 -0.7542 -0.3231
 1697ESO    H2a27362   6.061   5.830   3.257 -1.4689 -0.3815 -0.0717
 1697ESO    H2a27363   6.031   5.923   3.399  3.5492  0.3181  0.3344
 1697ESO    H2a27364   5.921   5.939   3.261  2.4176  0.8056 -2.7296
 1698ESO     O127365   1.961   0.450   6.777  0.5398 -0.3986 -0.4943
 1698ESO     O127366   1.898   0.665   6.845 -0.5185 -0.6741  0.2116
 1698ESO     O127367   1.980   0.521   7.009  0.5230 -0.0768 -0.0482
 1698ESO      S27368   1.986   0.555   6.873  0.1142 -0.2857  0.0365
 1698ESO     O227369   2.134   0.604   6.844  0.1085  0.0596 -0.9371
 1698ESO    C1a27370   2.158   0.745   6.881 -0.7002 -0.2570 -0.4815
 1698ESO    H1a27371   2.153   0.800   6.787 -2.2086 -0.0570  0.7983
 1698ESO    H1a27372   2.089   0.780   6.947  5.4812 -1.6828 -0.9351
 1698ESO    C2a27373   2.298   0.747   6.943 -1.2761  0.0978  0.7409
 1698ESO    H2a27374   2.324   0.842   6.971  0.3604 -1.3706 -1.7864
 1698ESO    H2a27375   2.380   0.719   6.875  2.2530  1.0834  3.8100
 1698ESO    H2a27376   2.302   0.681   7.027 -0.3851  2.1471 -1.4245
 1699ESO     O127377   1.436   1.628   0.333 -0.3866 -0.1860 -0.7219
 1699ESO     O127378   1.352   1.465   0.491  0.8744 -0.1462  0.5378
 1699ESO     O127379   1.262   1.480   0.266  1.0655  0.0332  0.2833
 1699ESO      S27380   1.376   1.497   0.352 -0.1314  0.1405 -0.1594
 1699ESO     O227381   1.483   1.390   0.305 -0.1678 -0.2801  0.7357
 1699ESO    C1a27382   1.537   1.396   0.170  0.1727  0.3958 -0.4096
 1699ESO    H1a27383   1.458   1.367   0.100 -2.9818 -1.1444  0.7926
 1699ESO    H1a27384   1.561   1.497   0.143  0.0563 -0.1738  1.1666
 1699ESO    C2a27385   1.652   1.307   0.162 -0.3964 -0.0766 -0.5327
 1699ESO    H2a27386   1.672   1.284   0.060  1.5900  0.5756  2.1677
 1699ESO    H2a27387   1.630   1.211   0.223 -3.3703 -4.4510 -0.5216
 1699ESO    H2a27388   1.739   1.358   0.201  0.3012 -2.2805 -2.0366
 1700ESO     O127389   5.108   0.320   1.573 -0.3509 -0.2839 -0.3476
 1700ESO     O127390   5.284   0.172   1.482 -0.2926 -0.2228 -0.3666
 1700ESO     O127391   5.343   0.351   1.608  0.0844  0.5613  0.0116
 1700ESO      S27392   5.237   0.255   1.587  0.1984 -0.4252 -0.4510
 1700ESO     O227393   5.221   0.170   1.715 -0.0897  0.0463  0.1515
 1700ESO    C1a27394   5.121   0.062   1.697 -0.4178 -0.3152 -0.1304
 1700ESO    H1a27395   5.031   0.103   1.663 -3.2046  1.2758  0.6349
 1700ESO    H1a27396   5.158  -0.016   1.628 -2.1513 -2.4451 -0.0715
 1700ESO    C2a27397   5.096   0.011   1.833 -0.0565 -0.4324 -0.4286
 1700ESO    H2a27398   5.062   0.090   1.892 -0.9089  0.4965 -2.5949
 1700ESO    H2a27399   5.186  -0.025   1.877 -0.5242 -1.5562 -2.0999
 1700ESO    H2a27400   5.016  -0.063   1.824  1.0701  0.1781  1.2223
 1701ESO     O127401   5.743   0.185   5.776 -0.4248  0.5235  0.1360
 1701ESO     O127402   5.927   0.342   5.736  0.3912 -0.6282  0.3939
 1701ESO     O127403   5.963   0.104   5.749 -0.2723  0.1095  0.1850
 1701ESO      S27404   5.874   0.212   5.714  0.2926 -0.1553 -0.1653
 1701ESO     O227405   5.852   0.201   5.553  0.1663 -0.5503  0.0256
 1701ESO    C1a27406   5.766   0.304   5.500  0.2652  0.1340  0.0998
 1701ESO    H1a27407   5.674   0.291   5.555  0.8979 -0.2668 -0.2771
 1701ESO    H1a27408   5.808   0.406   5.514  0.4879 -3.5113  3.4052
 1701ESO    C2a27409   5.750   0.281   5.351  0.1671 -0.8568  0.3785
 1701ESO    H2a27410   5.782   0.190   5.313  2.2522 -2.4019  2.7493
 1701ESO    H2a27411   5.814   0.359   5.298 -0.2666 -1.9529 -0.6866
 1701ESO    H2a27412   5.646   0.300   5.325  0.3810  1.0441  1.2505
 1702ESO     O127413   6.712   1.094   4.645  0.8051  0.3904 -0.0960
 1702ESO     O127414   6.797   1.316   4.639  0.3521 -0.1770  0.2145
 1702ESO     O127415   6.647   1.235   4.474 -0.5475 -0.8025  0.1224
 1702ESO      S27416   6.688   1.229   4.609 -0.2480 -0.2016 -0.2053
 1702ESO     O227417   6.571   1.273   4.701  0.7919 -0.2962 -0.0175
 1702ESO    C1a27418   6.435   1.221   4.675  0.4098  0.1076  0.2311
 1702ESO    H1a27419   6.365   1.306   4.665 -0.4456  1.5001  1.0374
 1702ESO    H1a27420   6.444   1.162   4.581  1.1094 -1.4533  0.2674
 1702ESO    C2a27421   6.397   1.142   4.791  0.3014 -0.3029  0.0364
 1702ESO    H2a27422   6.288   1.109   4.788 -2.0727 -1.0515  0.6163
 1702ESO    H2a27423   6.407   1.195   4.886 -1.4808  4.5735  0.8764
 1702ESO    H2a27424   6.471   1.062   4.805 -1.1902  1.3584  0.4389
 1703ESO     O127425   0.184   4.574   4.696 -0.2765  0.3082 -0.1184
 1703ESO     O127426   0.216   4.635   4.918  0.1270  0.4937  0.0233
 1703ESO     O127427   0.357   4.725   4.751  0.3711 -0.3635  0.2896
 1703ESO      S27428   0.226   4.676   4.785  0.1328 -0.0051  0.2787
 1703ESO     O227429   0.134   4.804   4.760 -0.1091  0.1601  0.6169
 1703ESO    C1a27430   0.142   4.879   4.634 -0.1466  0.9310 -0.9970
 1703ESO    H1a27431   0.185   4.977   4.648 -0.2814  1.4819 -1.6681
 1703ESO    H1a27432   0.194   4.815   4.569  1.5652  2.0152  1.3335
 1703ESO    C2a27433   0.000   4.886   4.582 -0.5097  0.0480  0.2045
 1703ESO    H2a27434  -0.005   4.891   4.473  0.5117  0.0749  1.4588
 1703ESO    H2a27435  -0.053   4.969   4.628  0.2143 -1.4964  0.8975
 1703ESO    H2a27436  -0.058   4.796   4.611  0.0661  0.2144 -1.7007
 1704ESO     O127437   1.450   2.220   3.241 -0.2499  0.5214  0.8729
 1704ESO     O127438   1.396   2.148   3.026 -0.6067 -0.3879  0.4349
 1704ESO     O127439   1.577   2.298   3.041  0.2089  0.9166  0.1879
 1704ESO      S27440   1.501   2.197   3.109  0.4104  0.2689 -0.1700
 1704ESO     O227441   1.602   2.082   3.118  0.6439  0.2905 -0.4150
 1704ESO    C1a27442   1.685   2.054   3.235  0.4674 -0.1981 -1.1676
 1704ESO    H1a27443   1.713   2.144   3.286 -0.0801  0.9269  0.8074
 1704ESO    H1a27444   1.634   1.988   3.306  0.9606  0.1722  0.1572
 1704ESO    C2a27445   1.805   1.992   3.166  0.5606 -0.0320  0.0868
 1704ESO    H2a27446   1.774   1.903   3.111  0.9072 -0.2490  2.8532
 1704ESO    H2a27447   1.878   1.958   3.239  0.8714  1.7772  0.6160
 1704ESO    H2a27448   1.863   2.065   3.102  0.1357 -2.2482 -1.2596
 1705ESO     O127449   1.998   0.355   6.005  0.2299 -0.4309  0.6350
 1705ESO     O127450   1.906   0.560   6.104 -0.0552  0.0097  0.1273
 1705ESO     O127451   1.932   0.357   6.239  0.1416 -0.1424  0.2346
 1705ESO      S27452   1.985   0.438   6.129  0.1897 -0.4894 -0.0822
 1705ESO     O227453   2.133   0.483   6.171 -0.9644  0.4728  0.6419
 1705ESO    C1a27454   2.242   0.390   6.181  0.7278 -0.9372  0.3720
 1705ESO    H1a27455   2.299   0.412   6.276  1.4383  0.6154 -0.4429
 1705ESO    H1a27456   2.189   0.290   6.171 -2.3708 -0.4594 -0.5912
 1705ESO    C2a27457   2.343   0.414   6.065  0.4414 -0.3382  0.1184
 1705ESO    H2a27458   2.292   0.375   5.977 -0.3033  1.9519  1.1661
 1705ESO    H2a27459   2.439   0.369   6.069 -0.6159 -0.7643 -2.4526
 1705ESO    H2a27460   2.353   0.525   6.048 -1.4789  2.2757 -0.2493
 1706ESO     O127461   5.868   6.664   2.493 -0.2354  0.7120 -0.2217
 1706ESO     O127462   5.815   6.430   2.526 -0.1503  0.3927  0.2164
 1706ESO     O127463   5.943   6.547   2.691 -0.8749  0.1306 -0.0061
 1706ESO      S27464   5.847   6.555   2.589  0.0927  0.1334  0.1230
 1706ESO     O227465   5.718   6.588   2.677 -0.1945 -0.6803  0.5537
 1706ESO    C1a27466   5.597   6.597   2.599  0.1159  0.0845  0.9222
 1706ESO    H1a27467   5.608   6.627   2.491 -0.4267  1.2941 -1.1603
 1706ESO    H1a27468   5.541   6.501   2.605 -0.6481 -0.7313 -0.0102
 1706ESO    C2a27469   5.515   6.702   2.663  0.2541 -0.1398 -0.1046
 1706ESO    H2a27470   5.496   6.673   2.765 -0.2740  0.9227  0.9192
 1706ESO    H2a27471   5.414   6.712   2.613  0.0895  0.1454 -0.5936
 1706ESO    H2a27472   5.567   6.797   2.671 -2.1608  0.7380 -0.8784
 1707ESO     O127473   6.676   1.028   6.017  0.5979  0.1069  0.5290
 1707ESO     O127474   6.792   0.823   5.987 -0.3661 -0.2431  0.0910
 1707ESO     O127475   6.788   0.940   6.205 -0.3935 -0.0583  0.2500
 1707ESO      S27476   6.729   0.911   6.081 -0.2236  0.1004  0.4160
 1707ESO     O227477   6.596   0.837   6.123 -0.1715  0.2148 -0.1191
 1707ESO    C1a27478   6.614   0.700   6.184  0.2284  0.0516 -0.5357
 1707ESO    H1a27479   6.672   0.640   6.113  0.8321  0.0404 -0.5730
 1707ESO    H1a27480   6.672   0.712   6.273 -1.4762 -1.3630 -1.1322
 1707ESO    C2a27481   6.480   0.640   6.231  0.4519 -0.5640  0.3151
 1707ESO    H2a27482   6.498   0.537   6.273  0.0234  1.3258 -0.7537
 1707ESO    H2a27483   6.414   0.629   6.143 -0.3912 -0.5518  0.1978
 1707ESO    H2a27484   6.433   0.711   6.300 -0.3402 -1.3433  0.0540
 1708ESO     O127485   4.143   2.361   5.304 -0.1060  0.2470 -0.2215
 1708ESO     O127486   4.076   2.578   5.355  0.6244  0.3641  0.8530
 1708ESO     O127487   4.039   2.412   5.510 -0.0778 -0.3172  0.0137
 1708ESO      S27488   4.128   2.459   5.410 -0.1897  0.6822 -0.3160
 1708ESO     O227489   4.261   2.489   5.488 -0.2269  0.5030 -0.1269
 1708ESO    C1a27490   4.368   2.553   5.413 -0.7158  0.3322  0.2741
 1708ESO    H1a27491   4.383   2.510   5.318 -1.1863 -4.6227  1.9083
 1708ESO    H1a27492   4.351   2.654   5.386 -0.0750 -3.5152 -1.0629
 1708ESO    C2a27493   4.495   2.536   5.501 -0.6116  0.2758 -0.1802
 1708ESO    H2a27494   4.477   2.580   5.602 -0.3470  1.0442  1.4837
 1708ESO    H2a27495   4.578   2.591   5.461 -1.2837 -0.9211  0.1361
 1708ESO    H2a27496   4.520   2.431   5.517  0.9674 -0.9881  0.2915
 1709ESO     O127497   3.418   4.855   3.227 -0.2989  0.3055 -0.1349
 1709ESO     O127498   3.252   4.834   3.391  0.3553  0.2377  0.2003
 1709ESO     O127499   3.369   4.635   3.301  0.0685  0.1893  0.4699
 1709ESO      S27500   3.375   4.776   3.337 -0.4140 -0.0868  0.2017
 1709ESO     O227501   3.486   4.799   3.445  0.1546 -0.6390  0.2420
 1709ESO    C1a27502   3.494   4.930   3.501  0.0897  0.2399 -0.0411
 1709ESO    H1a27503   3.434   4.997   3.436 -1.2390  0.1721 -0.0411
 1709ESO    H1a27504   3.462   4.941   3.605 -0.0672  0.9851  1.4824
 1709ESO    C2a27505   3.637   4.978   3.497  0.1354 -1.0508  0.3005
 1709ESO    H2a27506   3.697   4.905   3.556 -0.9725 -0.4235  1.3465
 1709ESO    H2a27507   3.635   5.081   3.535 -0.6006  1.4585  1.5641
 1709ESO    H2a27508   3.673   4.967   3.388 -1.1255  0.2310 -0.7669
 1710ESO     O127509   4.856   1.203   2.959  0.2563  0.0058 -0.1617
 1710ESO     O127510   4.673   1.348   3.009  0.1958  0.5661 -0.0857
 1710ESO     O127511   4.786   1.365   2.799 -0.1932  0.0310 -0.5712
 1710ESO      S27512   4.744   1.278   2.908  0.2089  0.1351 -0.2941
 1710ESO     O227513   4.655   1.171   2.838 -0.0694  0.2284  0.3132
 1710ESO    C1a27514   4.593   1.068   2.926 -0.0957 -0.1543 -0.2637
 1710ESO    H1a27515   4.652   0.981   2.937 -0.0542 -0.3904 -0.7338
 1710ESO    H1a27516   4.575   1.100   3.034  1.1379  0.5575  0.8326
 1710ESO    C2a27517   4.468   1.034   2.854  0.9020  0.9306 -0.6998
 1710ESO    H2a27518   4.485   0.979   2.763  2.1914 -0.0877  0.3744
 1710ESO    H2a27519   4.403   1.114   2.842  0.1898 -3.2824  1.4313
 1710ESO    H2a27520   4.411   0.965   2.912  2.7126  1.3984  1.6115
 1711ESO     O127521   0.986   3.528   2.473 -0.3581 -0.2131  0.6740
 1711ESO     O127522   0.945   3.315   2.574  0.0632 -0.0777 -0.3473
 1711ESO     O127523   1.048   3.489   2.699  0.1247 -0.3034  0.5138
 1711ESO      S27524   0.954   3.458   2.595 -0.5459 -0.1890  0.1909
 1711ESO     O227525   0.804   3.497   2.632 -0.3982 -0.1934 -0.2967
 1711ESO    C1a27526   0.693   3.486   2.542  0.0558  0.6139  0.4713
 1711ESO    H1a27527   0.632   3.573   2.553  0.0636 -1.2098  1.4057
 1711ESO    H1a27528   0.731   3.486   2.444 -2.7810 -2.2884  0.5452
 1711ESO    C2a27529   0.619   3.356   2.575  1.1105  0.2353 -0.3560
 1711ESO    H2a27530   0.581   3.376   2.674  0.7755  2.4465 -0.6954
 1711ESO    H2a27531   0.667   3.258   2.578 -2.3238  0.1978 -1.3193
 1711ESO    H2a27532   0.529   3.335   2.520 -0.6256  1.4758  1.5276
 1712ESO     O127533   1.608   0.208   3.002  0.1925  0.2898 -0.0321
 1712ESO     O127534   1.402   0.095   2.988 -0.4311  0.2124 -0.1432
 1712ESO     O127535   1.587  -0.005   3.109 -0.8298  0.2252  0.2354
 1712ESO      S27536   1.519   0.118   3.070  0.1961  0.2797 -0.1345
 1712ESO     O227537   1.465   0.193   3.192  0.1086 -0.3066  0.2753
 1712ESO    C1a27538   1.550   0.247   3.295 -0.7653 -0.0735 -0.1342
 1712ESO    H1a27539   1.618   0.168   3.328  0.3628  0.2023 -1.8627
 1712ESO    H1a27540   1.607   0.333   3.258  1.2946 -1.4913 -0.6319
 1712ESO    C2a27541   1.470   0.271   3.420  0.4547 -0.1229 -0.6419
 1712ESO    H2a27542   1.401   0.191   3.425  0.0120 -3.7829  1.3703
 1712ESO    H2a27543   1.414   0.362   3.417  1.2220  2.2811  0.0661
 1712ESO    H2a27544   1.534   0.265   3.507 -1.3224 -0.9387 -1.0248
 1713ESO     O127545   2.091   4.005   5.419 -0.4761  0.8683  0.2490
 1713ESO     O127546   1.879   4.045   5.510  0.2979  0.1497 -0.0616
 1713ESO     O127547   2.056   4.151   5.606 -0.1219 -0.3241 -0.0928
 1713ESO      S27548   2.003   4.097   5.484  0.0511  0.0251  0.1114
 1713ESO     O227549   1.976   4.227   5.400 -0.0802 -0.8840  0.4610
 1713ESO    C1a27550   2.083   4.289   5.326  0.2860 -0.5830  0.4543
 1713ESO    H1a27551   2.179   4.281   5.376 -0.3297  2.2804  0.3321
 1713ESO    H1a27552   2.096   4.240   5.229  2.2376  1.1570  0.1146
 1713ESO    C2a27553   2.027   4.429   5.298  0.3658 -0.7045 -0.0025
 1713ESO    H2a27554   2.102   4.497   5.258  1.7658  1.8104 -1.3020
 1713ESO    H2a27555   1.988   4.464   5.395 -1.3800  1.9411  1.8377
 1713ESO    H2a27556   1.943   4.422   5.222 -0.3958 -0.0346 -0.1063
 1714ESO     O127557   3.855   1.368   1.598 -0.5351 -0.3908  1.3202
 1714ESO     O127558   3.683   1.424   1.748  0.6814  1.1272 -0.3714
 1714ESO     O127559   3.708   1.196   1.688 -0.2563 -0.9993 -0.0619
 1714ESO      S27560   3.775   1.324   1.709 -0.2841  0.2037  0.1559
 1714ESO     O227561   3.874   1.311   1.834 -0.4498 -0.1763  0.0794
 1714ESO    C1a27562   4.000   1.241   1.808  0.3758 -0.0821  0.3883
 1714ESO    H1a27563   3.986   1.173   1.718  0.8936  0.8366 -2.7341
 1714ESO    H1a27564   4.080   1.310   1.792  1.0300  0.4924  2.1967
 1714ESO    C2a27565   4.036   1.151   1.923 -0.0061  0.7716 -0.1412
 1714ESO    H2a27566   3.947   1.100   1.956  0.4188  0.3903  1.5283
 1714ESO    H2a27567   4.074   1.200   2.011 -0.0744 -2.6486  0.5027
 1714ESO    H2a27568   4.113   1.076   1.898  2.0010  0.7472  0.6404
 1715ESO     O127569   1.745   3.612   0.642 -0.0899 -0.3813 -1.0558
 1715ESO     O127570   1.529   3.531   0.709 -0.4922 -0.5443 -0.0662
 1715ESO     O127571   1.644   3.676   0.853  0.4837  0.0411  0.1195
 1715ESO      S27572   1.625   3.638   0.715 -0.1754 -0.2378  0.0946
 1715ESO     O227573   1.558   3.762   0.636 -0.1679  0.5623 -0.1419
 1715ESO    C1a27574   1.631   3.888   0.645  0.5003  0.5099 -0.1896
 1715ESO    H1a27575   1.632   3.928   0.747  2.1102 -1.0165 -0.3327
 1715ESO    H1a27576   1.733   3.876   0.605 -1.5960  2.8273 -0.2687
 1715ESO    C2a27577   1.556   3.987   0.562  0.2890 -0.4112  0.0113
 1715ESO    H2a27578   1.619   4.084   0.556 -0.3274  1.9967  0.7346
 1715ESO    H2a27579   1.458   4.003   0.614 -2.3769 -4.9793  0.5036
 1715ESO    H2a27580   1.530   3.946   0.466 -0.5879 -0.8308 -1.2090
 1716ESO     O127581   0.575   6.491   6.813  0.1035  0.0383  0.2809
 1716ESO     O127582   0.713   6.595   6.989  0.1170  0.1729  0.1201
 1716ESO     O127583   0.592   6.734   6.841 -0.1763 -0.6132 -0.0668
 1716ESO      S27584   0.599   6.606   6.899  0.0480 -0.3108  0.0736
 1716ESO     O227585   0.477   6.597   6.992 -0.1597  0.6227 -0.3296
 1716ESO    C1a27586   0.470   6.679   7.114  0.9040  0.4131  0.1022
 1716ESO    H1a27587   0.539   6.639   7.183 -0.1011  2.4663  0.4155
 1716ESO    H1a27588   0.514   6.777   7.092  0.3383  0.2486 -0.1814
 1716ESO    C2a27589   0.323   6.679   7.157  0.5089  0.5239  0.9013
 1716ESO    H2a27590   0.252   6.730   7.089 -2.6071  0.6609  0.8960
 1716ESO    H2a27591   0.316   6.721   7.252  0.1940  0.9422 -2.0902
 1716ESO    H2a27592   0.289   6.569   7.163 -1.1486 -1.5816 -0.2567
 1717ESO     O127593   1.631   2.248   1.048 -0.3384 -0.1526 -0.2378
 1717ESO     O127594   1.439   2.105   1.060 -0.8234  0.0601 -0.1034
 1717ESO     O127595   1.522   2.182   0.846  0.3561 -0.5492 -0.0829
 1717ESO      S27596   1.554   2.145   0.981 -0.1538 -0.0807  0.1170
 1717ESO     O227597   1.649   2.020   0.968  0.4012 -0.0972 -0.4718
 1717ESO    C1a27598   1.692   1.952   1.088  0.2405  0.6071 -1.0400
 1717ESO    H1a27599   1.778   1.998   1.128  0.2678 -1.0112  0.4464
 1717ESO    H1a27600   1.608   1.951   1.162 -0.7585 -0.6988  0.8231
 1717ESO    C2a27601   1.707   1.808   1.045 -0.2170  1.2238  0.4795
 1717ESO    H2a27602   1.636   1.783   0.971  0.0915  1.1587 -1.4260
 1717ESO    H2a27603   1.703   1.737   1.121  0.9525  0.2212  0.9797
 1717ESO    H2a27604   1.799   1.778   1.003 -0.7485 -1.0889  2.5377
 1718ESO     O127605   6.160   1.380   6.343  0.4650 -0.3171  0.5702
 1718ESO     O127606   6.124   1.619   6.331  0.5630 -0.1269  0.0323
 1718ESO     O127607   6.290   1.522   6.476 -1.0343 -0.3899 -0.8813
 1718ESO      S27608   6.218   1.510   6.358 -0.2647  0.3685 -0.4241
 1718ESO     O227609   6.334   1.522   6.246 -0.4481  0.3217 -0.8443
 1718ESO    C1a27610   6.303   1.533   6.107 -0.5376 -0.0824  0.1918
 1718ESO    H1a27611   6.345   1.454   6.048 -0.0678 -0.2407  0.0724
 1718ESO    H1a27612   6.196   1.533   6.086 -1.2605 -1.7099 -2.2217
 1718ESO    C2a27613   6.350   1.669   6.070 -0.1021 -0.4338  0.0221
 1718ESO    H2a27614   6.329   1.697   5.966  1.0067 -2.5391  1.3281
 1718ESO    H2a27615   6.451   1.686   6.112 -0.7234 -0.9088  0.0870
 1718ESO    H2a27616   6.300   1.746   6.134  0.9035  0.4816 -0.4390
 1719ESO     O127617   6.334   1.138   0.793 -0.1917  0.5537  0.6875
 1719ESO     O127618   6.303   1.368   0.845  0.9201  0.5669 -0.0475
 1719ESO     O127619   6.526   1.284   0.831  0.2071 -0.2706 -0.3238
 1719ESO      S27620   6.389   1.271   0.789  0.0388 -0.2479  0.0690
 1719ESO     O227621   6.379   1.305   0.637 -0.0820  0.6825  0.0357
 1719ESO    C1a27622   6.449   1.420   0.577 -0.4344  0.2766 -0.1691
 1719ESO    H1a27623   6.389   1.453   0.490  3.8550  1.1188  1.4345
 1719ESO    H1a27624   6.463   1.504   0.653 -0.4599 -0.5169 -0.1829
 1719ESO    C2a27625   6.584   1.381   0.511 -0.0722  0.0274 -0.0193
 1719ESO    H2a27626   6.643   1.348   0.596  1.4339  0.5235 -1.3609
 1719ESO    H2a27627   6.617   1.464   0.452 -0.3986 -1.7288 -1.2812
 1719ESO    H2a27628   6.569   1.304   0.439 -0.0947 -0.6885  0.2763
 1720ESO     O127629   3.534   0.905   1.446 -0.3705  0.0393 -0.1587
 1720ESO     O127630   3.296   0.924   1.460 -0.3872  0.4814 -0.1685
 1720ESO     O127631   3.406   0.980   1.256  0.2858 -0.1603  0.2101
 1720ESO      S27632   3.409   0.893   1.375 -0.0443  0.4010  0.0285
 1720ESO     O227633   3.399   0.739   1.338  0.3322 -0.0619  0.1650
 1720ESO    C1a27634   3.282   0.692   1.262  1.0875 -0.0334  0.5033
 1720ESO    H1a27635   3.252   0.779   1.198 -2.4823 -0.8002 -0.9640
 1720ESO    H1a27636   3.304   0.617   1.187  0.1585 -0.8513  2.5327
 1720ESO    C2a27637   3.176   0.626   1.347 -0.4161 -0.1345 -0.6636
 1720ESO    H2a27638   3.221   0.552   1.416  1.8139 -0.7877  0.4725
 1720ESO    H2a27639   3.103   0.579   1.274 -2.3549 -0.6178  0.0172
 1720ESO    H2a27640   3.121   0.697   1.410  1.4045  1.5334 -2.0885
 1721ESO     O127641   4.565   2.118   0.177 -0.6850  0.1474  0.1742
 1721ESO     O127642   4.430   2.141   0.374  0.0728  0.1983  0.0399
 1721ESO     O127643   4.661   2.170   0.402 -0.5095 -0.0264 -0.1602
 1721ESO      S27644   4.553   2.180   0.310  0.0429  0.1542  0.2181
 1721ESO     O227645   4.535   2.330   0.274 -0.5853  0.0612 -0.0735
 1721ESO    C1a27646   4.633   2.412   0.198  0.2699 -0.3212 -0.1302
 1721ESO    H1a27647   4.658   2.503   0.250 -1.3888 -0.3954  0.3898
 1721ESO    H1a27648   4.721   2.351   0.179 -3.2102  2.3956 -0.6915
 1721ESO    C2a27649   4.579   2.442   0.057 -0.1854  0.0817 -0.0241
 1721ESO    H2a27650   4.536   2.349   0.017  0.9708 -0.0304  0.6229
 1721ESO    H2a27651   4.643   2.480  -0.019  2.5813 -2.7122  1.7298
 1721ESO    H2a27652   4.498   2.513   0.059  1.1053  2.1782  3.6838
 1722ESO     O127653   1.306   5.749   2.655  0.3356 -0.1943  0.2129
 1722ESO     O127654   1.118   5.619   2.730  0.6078 -0.6937  0.2361
 1722ESO     O127655   1.090   5.843   2.655  0.0445  0.2694 -0.0841
 1722ESO      S27656   1.164   5.726   2.647  0.3025  0.6639  0.0564
 1722ESO     O227657   1.140   5.668   2.499 -0.1050  0.0066  0.1648
 1722ESO    C1a27658   1.181   5.533   2.472  0.2217 -0.3631  0.0895
 1722ESO    H1a27659   1.277   5.521   2.518  2.6062  1.5353 -0.0841
 1722ESO    H1a27660   1.112   5.455   2.513 -1.2320 -1.7012 -1.6300
 1722ESO    C2a27661   1.190   5.509   2.324 -0.2066 -0.1257 -0.0249
 1722ESO    H2a27662   1.133   5.426   2.293  1.5477 -0.1244  1.9513
 1722ESO    H2a27663   1.292   5.472   2.281 -0.8768  2.0561  2.1260
 1722ESO    H2a27664   1.165   5.597   2.265  0.5175  3.0928 -0.8195
 1723ESO     O127665   5.433   5.085   0.710 -0.5149 -0.2027 -0.0635
 1723ESO     O127666   5.331   5.064   0.920 -0.2494 -0.0248 -0.1740
 1723ESO     O127667   5.222   5.186   0.741 -0.3940  0.0057  0.3851
 1723ESO      S27668   5.309   5.079   0.778 -0.4073  0.2413  0.2804
 1723ESO     O227669   5.240   4.949   0.712 -0.3468 -0.4741  0.3037
 1723ESO    C1a27670   5.102   4.921   0.766 -0.2609 -0.7162  0.2004
 1723ESO    H1a27671   5.098   4.977   0.861 -0.4419  1.9485 -2.0878
 1723ESO    H1a27672   5.026   4.961   0.704  1.5783  0.7437  1.5661
 1723ESO    C2a27673   5.092   4.773   0.779  0.2681  0.3460  0.0762
 1723ESO    H2a27674   5.185   4.734   0.803 -0.2100  1.7611  1.0278
 1723ESO    H2a27675   5.042   4.714   0.702  0.9967  1.6186 -3.6258
 1723ESO    H2a27676   5.028   4.758   0.867 -0.3097 -1.7539 -0.3028
 1724ESO     O127677   1.585   5.408   1.298 -0.2548  0.3431  0.2792
 1724ESO     O127678   1.389   5.501   1.192 -0.5614 -0.1334  0.1674
 1724ESO     O127679   1.439   5.262   1.164 -0.0453 -0.0198  0.3696
 1724ESO      S27680   1.454   5.382   1.247  0.1991 -0.5617  0.3462
 1724ESO     O227681   1.375   5.355   1.383 -0.3615  0.0795  0.0935
 1724ESO    C1a27682   1.230   5.340   1.396  0.5203 -0.1841  0.3089
 1724ESO    H1a27683   1.187   5.361   1.497 -2.4324  3.7706  2.4851
 1724ESO    H1a27684   1.195   5.414   1.321 -0.3057 -2.0793 -0.9221
 1724ESO    C2a27685   1.186   5.206   1.357  0.9115 -0.2403  0.2083
 1724ESO    H2a27686   1.080   5.187   1.394  1.3545 -2.1262 -3.5607
 1724ESO    H2a27687   1.248   5.135   1.405 -0.9011 -0.5326 -1.0344
 1724ESO    H2a27688   1.185   5.178   1.249  0.6084  1.0147  2.2986
 1725ESO     O127689   1.696   5.652   1.880  0.0919  0.6435  0.6566
 1725ESO     O127690   1.668   5.578   2.104 -0.1637 -0.3098 -0.6057
 1725ESO     O127691   1.581   5.786   2.032 -0.2994 -0.3547  0.4808
 1725ESO      S27692   1.613   5.652   1.995  0.0556 -0.4244  0.3958
 1725ESO     O227693   1.472   5.590   1.953  0.1482 -0.0763 -0.1658
 1725ESO    C1a27694   1.444   5.452   1.932  0.5289  0.3137 -0.0097
 1725ESO    H1a27695   1.523   5.393   1.981 -1.6809 -0.3254  0.6163
 1725ESO    H1a27696   1.348   5.426   1.981  0.7488 -0.2125  0.1543
 1725ESO    C2a27697   1.447   5.436   1.790 -0.4380  0.2277  0.1942
 1725ESO    H2a27698   1.361   5.474   1.736 -0.2340 -0.0013 -0.6017
 1725ESO    H2a27699   1.463   5.334   1.775 -0.8865 -0.6017  0.5874
 1725ESO    H2a27700   1.534   5.475   1.756 -0.1124 -2.3940  1.9304
 1726ESO     O127701   2.756   2.241   0.434 -1.0831  0.0180 -0.1162
 1726ESO     O127702   2.929   2.284   0.272 -0.0859  0.0458 -0.4646
 1726ESO     O127703   2.902   2.069   0.367 -0.5111 -0.4832 -0.3680
 1726ESO      S27704   2.839   2.190   0.327  0.2340  0.2033  0.1997
 1726ESO     O227705   2.741   2.146   0.213  0.4842 -0.2616  0.1734
 1726ESO    C1a27706   2.788   2.144   0.079  0.2161  0.0046 -0.3675
 1726ESO    H1a27707   2.827   2.245   0.054 -2.2985  0.4031  1.1622
 1726ESO    H1a27708   2.862   2.065   0.061 -0.9727 -0.5443 -2.4409
 1726ESO    C2a27709   2.670   2.106  -0.004 -0.4154 -0.3346 -0.1240
 1726ESO    H2a27710   2.616   2.027   0.042  0.1616 -0.6751  1.5696
 1726ESO    H2a27711   2.706   2.071  -0.101  2.5769  0.6497  2.0195
 1726ESO    H2a27712   2.619   2.199  -0.016  0.0444  0.4984  1.4110
 1727ESO     O127713   3.843   3.997   0.092  0.4270 -0.3575  0.0556
 1727ESO     O127714   3.909   3.774   0.139  0.0713  0.0893  0.2163
 1727ESO     O127715   3.861   3.918   0.324  0.2091 -0.4263  0.4843
 1727ESO      S27716   3.834   3.889   0.183  0.0914 -0.2516 -0.0717
 1727ESO     O227717   3.684   3.839   0.181 -0.3256 -0.3527 -0.0164
 1727ESO    C1a27718   3.578   3.942   0.204  0.3061  0.2521 -0.6914
 1727ESO    H1a27719   3.605   4.009   0.285 -0.7749  1.8465  1.1877
 1727ESO    H1a27720   3.548   3.992   0.106 -1.0966 -2.3373 -4.0429
 1727ESO    C2a27721   3.446   3.869   0.241 -0.8295 -0.1592  0.3474
 1727ESO    H2a27722   3.418   3.803   0.159  1.5860 -2.6370 -2.3218
 1727ESO    H2a27723   3.361   3.938   0.255  1.0128 -0.8763  0.6036
 1727ESO    H2a27724   3.453   3.802   0.320 -2.2468  4.1074 -0.8924
 1728ESO     O127725   1.331   1.952   1.801  0.2811 -0.0418 -0.0960
 1728ESO     O127726   1.166   1.858   1.940  0.1189 -0.2449 -0.3650
 1728ESO     O127727   1.383   1.772   1.951  0.0884 -0.0518 -0.1515
 1728ESO      S27728   1.301   1.889   1.924 -0.0745  0.0971 -0.0371
 1728ESO     O227729   1.330   1.994   2.040 -0.7962  0.2734 -0.0499
 1728ESO    C1a27730   1.471   2.025   2.055 -0.3583  0.0808 -0.1164
 1728ESO    H1a27731   1.520   1.932   2.056 -2.0294  1.8318 -1.9286
 1728ESO    H1a27732   1.512   2.076   1.974 -0.6825  0.5670 -2.2113
 1728ESO    C2a27733   1.495   2.104   2.178 -0.2095 -0.6651 -0.0475
 1728ESO    H2a27734   1.468   2.211   2.178 -0.2721  2.5663  1.4747
 1728ESO    H2a27735   1.602   2.106   2.209  0.1231 -2.6425 -0.1663
 1728ESO    H2a27736   1.435   2.062   2.265  0.0478 -0.9198 -0.2320
 1729ESO     O127737   5.785   0.789   3.675  0.5202 -0.1534  0.0150
 1729ESO     O127738   5.773   0.868   3.452 -0.5542 -0.2622 -0.2528
 1729ESO     O127739   5.642   0.685   3.525  0.5995 -0.5956 -0.2273
 1729ESO      S27740   5.701   0.809   3.559 -0.4634 -0.0948 -0.1479
 1729ESO     O227741   5.579   0.902   3.591  0.4738 -0.2286 -0.0399
 1729ESO    C1a27742   5.609   1.039   3.636  0.2315 -0.3331  0.1701
 1729ESO    H1a27743   5.695   1.038   3.703  0.1685 -3.1682 -1.3838
 1729ESO    H1a27744   5.636   1.106   3.555 -1.7563  3.3665  0.2958
 1729ESO    C2a27745   5.487   1.085   3.707  0.2290  0.0357 -0.8762
 1729ESO    H2a27746   5.511   1.161   3.784 -0.3905  0.7870  1.5953
 1729ESO    H2a27747   5.448   1.002   3.769  0.0119 -2.5035  0.8967
 1729ESO    H2a27748   5.409   1.123   3.646  1.8946 -1.2344 -0.7709
 1730ESO     O127749   3.956   0.187   2.392  0.5024 -0.2705 -0.7004
 1730ESO     O127750   3.964   0.408   2.492  0.1053  0.8851 -0.9547
 1730ESO     O127751   3.956   0.212   2.629  0.5830  0.7176 -0.0372
 1730ESO      S27752   3.999   0.269   2.500  0.0642 -0.3375 -0.1655
 1730ESO     O227753   4.152   0.252   2.481  0.3495  0.0773 -0.2460
 1730ESO    C1a27754   4.234   0.305   2.600 -0.0533 -0.3193 -0.0685
 1730ESO    H1a27755   4.185   0.396   2.634 -1.0691  0.8423 -0.4467
 1730ESO    H1a27756   4.232   0.223   2.674 -0.7475 -0.5579 -0.1170
 1730ESO    C2a27757   4.373   0.346   2.562 -0.1903  0.3463  0.8839
 1730ESO    H2a27758   4.412   0.257   2.520 -2.1219 -0.8224 -2.4124
 1730ESO    H2a27759   4.434   0.388   2.643 -1.2639 -2.5668  0.9265
 1730ESO    H2a27760   4.370   0.436   2.494  1.6607  0.3927 -0.2674
 1731ESO     O127761   4.545   1.071   6.653 -0.0863 -0.1665  0.3852
 1731ESO     O127762   4.522   1.267   6.781 -0.4263  0.3612  0.1065
 1731ESO     O127763   4.694   1.244   6.608 -0.4160  0.4670 -0.1334
 1731ESO      S27764   4.564   1.211   6.655  0.1172 -0.3586  0.4460
 1731ESO     O227765   4.462   1.265   6.541 -0.2274  0.3976 -0.5580
 1731ESO    C1a27766   4.466   1.408   6.503  0.5648  0.4162  0.1292
 1731ESO    H1a27767   4.361   1.444   6.526  0.7365  0.6959  1.7921
 1731ESO    H1a27768   4.544   1.460   6.558  1.7520 -1.0914 -3.0242
 1731ESO    C2a27769   4.489   1.412   6.356  0.7266  0.6790 -0.1911
 1731ESO    H2a27770   4.588   1.378   6.343  0.0142  0.1183 -0.2110
 1731ESO    H2a27771   4.482   1.510   6.322 -0.1534 -0.0708 -0.4201
 1731ESO    H2a27772   4.423   1.340   6.307 -1.5439 -0.3460  0.1098
 1732ESO     O127773   3.339   2.287   4.038  0.1452  0.8027  0.4118
 1732ESO     O127774   3.436   2.270   4.257 -0.5021  0.0764 -0.2020
 1732ESO     O127775   3.200   2.256   4.233 -0.0725  1.1725  0.5157
 1732ESO      S27776   3.326   2.235   4.170 -0.3052 -0.4259 -0.1943
 1732ESO     O227777   3.342   2.077   4.163 -0.0947 -0.9094  0.4566
 1732ESO    C1a27778   3.259   2.016   4.061 -0.5111  0.1326  0.1231
 1732ESO    H1a27779   3.149   2.043   4.061  0.9499  0.0300  0.1859
 1732ESO    H1a27780   3.302   2.039   3.965  1.3857  1.8483 -0.5265
 1732ESO    C2a27781   3.283   1.873   4.089  0.4175  0.5613  0.2631
 1732ESO    H2a27782   3.230   1.814   4.009 -0.4320 -2.2473 -1.3745
 1732ESO    H2a27783   3.241   1.839   4.182  0.8933  1.6866 -0.7560
 1732ESO    H2a27784   3.394   1.850   4.084 -1.1490  0.0117 -0.8898
 1733ESO     O127785   6.331   6.811   1.786  0.2584  0.5459 -0.6198
 1733ESO     O127786   6.322   6.577   1.840  0.3231  0.0394 -0.3174
 1733ESO     O127787   6.303   6.658   1.613  0.5857  0.0360 -0.2103
 1733ESO      S27788   6.362   6.679   1.742 -0.0031 -0.0919 -0.3874
 1733ESO     O227789   6.516   6.669   1.732  0.3564  1.0480  0.6396
 1733ESO    C1a27790   6.596   6.737   1.631 -0.0132 -0.1712  0.0471
 1733ESO    H1a27791   6.659   6.663   1.576  0.8858 -2.9162 -0.4353
 1733ESO    H1a27792   6.524   6.779   1.565  1.9947 -1.7904 -1.2578
 1733ESO    C2a27793   6.682   6.843   1.700 -0.5150 -0.2866 -0.8834
 1733ESO    H2a27794   6.718   6.797   1.792  0.6196 -2.7306 -0.3441
 1733ESO    H2a27795   6.625   6.925   1.737 -0.1764 -1.5196 -1.4360
 1733ESO    H2a27796   6.769   6.878   1.644 -0.8868  2.5717  1.3988
 1734ESO     O127797   5.116   6.591   5.630  0.3193  0.1592  0.5680
 1734ESO     O127798   5.013   6.800   5.672 -0.6982  0.1249  0.2206
 1734ESO     O127799   4.886   6.609   5.691  0.0457  0.6179  0.2748
 1734ESO      S27800   5.016   6.663   5.701 -0.0242  0.1460  0.1482
 1734ESO     O227801   5.045   6.643   5.850  0.1708 -0.4967 -0.1471
 1734ESO    C1a27802   5.181   6.676   5.897  0.6314 -0.3129  0.3200
 1734ESO    H1a27803   5.254   6.627   5.837 -3.9395 -0.9467  0.6577
 1734ESO    H1a27804   5.183   6.786   5.877 -0.8671  2.6640  1.1481
 1734ESO    C2a27805   5.181   6.657   6.042 -0.5794  0.1954 -0.0667
 1734ESO    H2a27806   5.272   6.701   6.088  2.8187  0.7236 -1.0361
 1734ESO    H2a27807   5.176   6.554   6.077  0.4153  0.1627  1.2032
 1734ESO    H2a27808   5.093   6.699   6.090  0.0589 -0.0257 -2.0950
 1735ESO     O127809   4.432   3.769   4.504  0.5030  0.3277 -0.2920
 1735ESO     O127810   4.432   3.888   4.298  0.0882  0.2516 -0.5039
 1735ESO     O127811   4.236   3.772   4.369 -0.1072  0.9066 -0.2116
 1735ESO      S27812   4.358   3.840   4.409 -0.0260  0.0657 -0.2584
 1735ESO     O227813   4.300   3.968   4.482  0.2392  0.4418 -0.1086
 1735ESO    C1a27814   4.359   4.031   4.596 -0.0131 -0.6415 -0.6233
 1735ESO    H1a27815   4.314   4.001   4.685  1.9910  0.7819 -1.8048
 1735ESO    H1a27816   4.462   3.995   4.616  0.2987 -0.0701 -0.3173
 1735ESO    C2a27817   4.357   4.179   4.579  0.1893  0.2809 -0.4186
 1735ESO    H2a27818   4.384   4.232   4.666  2.3419 -0.7085  0.1233
 1735ESO    H2a27819   4.259   4.215   4.558 -1.4047 -2.9286  0.5382
 1735ESO    H2a27820   4.422   4.203   4.496 -0.0057 -0.8694 -1.1116
 1736ESO     O127821   3.086   1.580   0.882  0.1416 -0.4025  0.4451
 1736ESO     O127822   3.044   1.373   0.777 -0.8084  0.1216 -0.1930
 1736ESO     O127823   2.865   1.480   0.903 -0.7343  0.2237  0.2249
 1736ESO      S27824   2.983   1.497   0.824  0.2390  0.1034 -0.2725
 1736ESO     O227825   2.937   1.582   0.700  0.5321 -0.1329  0.5421
 1736ESO    C1a27826   3.033   1.618   0.598 -0.5731 -0.3884 -0.3856
 1736ESO    H1a27827   3.067   1.715   0.634 -2.4093 -0.7915 -0.9983
 1736ESO    H1a27828   3.115   1.549   0.588  0.4836 -0.4409  0.4222
 1736ESO    C2a27829   2.963   1.630   0.467 -0.6507 -0.0809  0.5998
 1736ESO    H2a27830   3.015   1.683   0.390 -0.5976  0.0511  0.5322
 1736ESO    H2a27831   2.864   1.678   0.481 -1.1653  0.0049 -0.5936
 1736ESO    H2a27832   2.947   1.532   0.416  0.3297 -0.4177  0.6508
 1737ESO     O127833   1.778   0.412   4.457 -0.5306 -0.5160 -0.0918
 1737ESO     O127834   1.552   0.458   4.504 -0.5616 -0.4284 -0.5817
 1737ESO     O127835   1.650   0.518   4.292  0.3338  0.3958 -0.0614
 1737ESO      S27836   1.646   0.428   4.401  0.1140  0.1808 -0.1415
 1737ESO     O227837   1.619   0.285   4.356  0.0456 -0.0203  0.0494
 1737ESO    C1a27838   1.552   0.263   4.227  0.4388 -0.5252 -0.1739
 1737ESO    H1a27839   1.481   0.339   4.200  0.6127 -3.3839 -2.6579
 1737ESO    H1a27840   1.631   0.255   4.157 -2.0813 -1.9514  3.0148
 1737ESO    C2a27841   1.477   0.135   4.246 -0.2969  0.5764 -0.1638
 1737ESO    H2a27842   1.527   0.077   4.318  3.1135 -0.0175 -0.9008
 1737ESO    H2a27843   1.478   0.087   4.147 -1.3604 -0.6435 -2.6621
 1737ESO    H2a27844   1.373   0.138   4.273 -1.2823 -3.3449  0.9086
 1738ESO     O127845   1.789   1.865   6.456  0.6370 -0.4031 -0.2594
 1738ESO     O127846   1.594   1.721   6.443  0.0351  0.2378  0.2750
 1738ESO     O127847   1.786   1.687   6.300 -0.4385  0.0022  0.3563
 1738ESO      S27848   1.737   1.734   6.428 -0.1931  0.3642  0.2262
 1738ESO     O227849   1.802   1.637   6.537  0.0536 -0.3023  0.0086
 1738ESO    C1a27850   1.780   1.661   6.676 -0.1610 -0.1959 -0.4405
 1738ESO    H1a27851   1.830   1.746   6.717 -1.6049  2.6806  1.5944
 1738ESO    H1a27852   1.668   1.674   6.674 -0.3792 -1.6195  0.7874
 1738ESO    C2a27853   1.830   1.531   6.741 -0.1568  0.9587 -0.0576
 1738ESO    H2a27854   1.797   1.530   6.852  2.7761  0.2680  1.2601
 1738ESO    H2a27855   1.935   1.532   6.737  0.5855 -0.9416  1.7069
 1738ESO    H2a27856   1.788   1.438   6.697  0.6784 -1.0891 -0.3995
 1739ESO     O127857   5.507   0.241   6.365 -0.4084 -0.0431  0.0447
 1739ESO     O127858   5.678   0.292   6.528 -0.1127 -0.6013 -0.1922
 1739ESO     O127859   5.732   0.158   6.339 -0.2762 -0.4838 -0.0995
 1739ESO      S27860   5.646   0.258   6.393  0.2019 -0.2130 -0.2031
 1739ESO     O227861   5.667   0.393   6.305 -0.5428  0.2519  0.4903
 1739ESO    C1a27862   5.790   0.467   6.317 -0.4911  0.1741  0.1522
 1739ESO    H1a27863   5.776   0.562   6.373  1.3017 -2.1556 -1.5731
 1739ESO    H1a27864   5.874   0.404   6.355  3.3706 -1.4369 -1.1438
 1739ESO    C2a27865   5.832   0.480   6.178  0.0261 -0.1230 -0.6074
 1739ESO    H2a27866   5.836   0.384   6.142  0.1755  1.2820  0.0585
 1739ESO    H2a27867   5.933   0.521   6.165  0.4303  1.4373  2.1829
 1739ESO    H2a27868   5.763   0.535   6.118  1.3618 -0.4933 -0.2488
 1740ESO     O127869   3.471   5.398   0.572  0.5549  0.4627 -0.4397
 1740ESO     O127870   3.566   5.582   0.454 -0.2038 -0.6419 -0.3215
 1740ESO     O127871   3.376   5.618   0.600  0.1923  0.0021  0.2271
 1740ESO      S27872   3.496   5.538   0.574 -0.6141  0.0560  0.0438
 1740ESO     O227873   3.594   5.558   0.694 -0.5471 -0.1191 -0.9801
 1740ESO    C1a27874   3.657   5.682   0.726 -0.7143  0.3772  0.5551
 1740ESO    H1a27875   3.631   5.759   0.661  0.1532 -2.2215  0.0334
 1740ESO    H1a27876   3.631   5.727   0.823 -0.6717 -1.0014 -2.8200
 1740ESO    C2a27877   3.808   5.650   0.711 -0.5587  0.2740  0.1889
 1740ESO    H2a27878   3.817   5.593   0.620 -1.3942 -1.7758 -0.6263
 1740ESO    H2a27879   3.854   5.596   0.795  0.8398 -2.3373  1.8283
 1740ESO    H2a27880   3.862   5.740   0.697 -0.0790 -1.6955  2.3028
 1741ESO     O127881   5.030   1.587   5.148 -0.3886 -0.5208 -0.1249
 1741ESO     O127882   5.217   1.743   5.139  0.1263 -0.6292  0.3726
 1741ESO     O127883   5.166   1.646   5.347  0.1023  0.0835  0.7220
 1741ESO      S27884   5.158   1.626   5.203 -0.0400  0.1236  0.2797
 1741ESO     O227885   5.256   1.506   5.160  0.2895  0.7925 -0.2562
 1741ESO    C1a27886   5.230   1.381   5.229  0.1148  0.6442 -0.4198
 1741ESO    H1a27887   5.143   1.398   5.294 -1.7956  2.0015  1.0692
 1741ESO    H1a27888   5.209   1.305   5.159 -0.4949 -1.5540  1.5419
 1741ESO    C2a27889   5.345   1.341   5.317  0.1450  0.2364  0.1609
 1741ESO    H2a27890   5.360   1.418   5.395 -0.3490  1.4187  0.6455
 1741ESO    H2a27891   5.441   1.329   5.264  1.7100 -1.7043 -0.1233
 1741ESO    H2a27892   5.312   1.251   5.368 -0.0377 -3.0318 -0.4896
 1742ESO     O127893   0.175   6.498   3.304  0.1007  1.0350  0.0968
 1742ESO     O127894   0.156   6.706   3.413 -0.1792  0.2138 -0.8052
 1742ESO     O127895   0.075   6.677   3.192 -0.1854  0.4417  0.0355
 1742ESO      S27896   0.094   6.616   3.322 -0.1193 -0.3938  0.3123
 1742ESO     O227897  -0.051   6.574   3.375 -0.2422 -0.4128 -0.0814
 1742ESO    C1a27898  -0.127   6.485   3.291 -0.4758  0.2021  0.3324
 1742ESO    H1a27899  -0.072   6.480   3.195 -0.3654  2.6131 -0.0863
 1742ESO    H1a27900  -0.136   6.388   3.329 -2.4887  1.2780  1.6283
 1742ESO    C2a27901  -0.264   6.555   3.277 -0.7146  0.5825  0.4140
 1742ESO    H2a27902  -0.320   6.566   3.366 -0.2593  0.9150 -1.4858
 1742ESO    H2a27903  -0.327   6.502   3.204 -0.1497  0.1907 -0.9095
 1742ESO    H2a27904  -0.259   6.653   3.238  0.9638 -0.9937 -1.9154
 1743ESO     O127905   6.774   5.043   1.268  0.7654 -0.5028 -0.1834
 1743ESO     O127906   6.802   5.221   1.422 -0.1791 -0.9773  0.4787
 1743ESO     O127907   6.925   5.015   1.452 -0.2277  0.5541  0.0701
 1743ESO      S27908   6.864   5.107   1.361 -0.0917  0.0272  0.5584
 1743ESO     O227909   6.981   5.163   1.273  1.0395  0.3998 -0.2510
 1743ESO    C1a27910   7.060   5.274   1.320  0.3768  0.9284 -0.2090
 1743ESO    H1a27911   7.006   5.360   1.343  0.3687  1.7391 -2.0498
 1743ESO    H1a27912   7.115   5.237   1.408 -2.0272 -0.0580  0.0193
 1743ESO    C2a27913   7.163   5.308   1.211 -0.1404 -0.0807 -0.0488
 1743ESO    H2a27914   7.230   5.227   1.187  0.0339  2.3859 -1.5471
 1743ESO    H2a27915   7.226   5.394   1.240  2.8185  0.7963 -1.0569
 1743ESO    H2a27916   7.121   5.339   1.115 -0.7397  0.5439  0.6627
 1744ESO     O127917   4.015   6.364   4.763 -0.1835  0.3444  0.9579
 1744ESO     O127918   3.968   6.134   4.803  0.3233  0.2715 -0.3853
 1744ESO     O127919   3.986   6.292   4.985 -0.0336 -0.2232  0.0668
 1744ESO      S27920   3.948   6.271   4.845  0.1118  0.0726 -0.0078
 1744ESO     O227921   3.789   6.301   4.839  0.2866 -0.0884  0.0615
 1744ESO    C1a27922   3.708   6.212   4.926  0.0485 -0.2554 -0.2404
 1744ESO    H1a27923   3.732   6.101   4.915 -1.4260 -0.4836  2.3447
 1744ESO    H1a27924   3.727   6.241   5.025 -0.2106 -2.4653  2.1334
 1744ESO    C2a27925   3.558   6.235   4.895  0.5274  0.7120 -0.1905
 1744ESO    H2a27926   3.519   6.204   4.798 -0.4629 -0.0322 -0.7819
 1744ESO    H2a27927   3.532   6.341   4.899  1.9748 -2.6012  2.3031
 1744ESO    H2a27928   3.505   6.176   4.967  3.2343 -0.3116 -0.8548
 1745ESO     O127929   5.562   1.914   4.358 -0.2199  0.1625  0.6327
 1745ESO     O127930   5.649   2.124   4.416 -0.2967  0.1356 -0.4255
 1745ESO     O127931   5.764   1.981   4.259  0.2086 -0.0549  0.3873
 1745ESO      S27932   5.639   2.022   4.314  0.4554 -0.3287 -0.7104
 1745ESO     O227933   5.566   2.084   4.188  0.5166  0.3593 -0.2558
 1745ESO    C1a27934   5.614   2.216   4.148 -0.4829 -0.1151 -0.2222
 1745ESO    H1a27935   5.614   2.285   4.231 -0.7147  0.3873 -0.2941
 1745ESO    H1a27936   5.708   2.205   4.101  1.4301 -0.8685  2.0992
 1745ESO    C2a27937   5.505   2.271   4.047 -0.7619 -0.1772  0.3059
 1745ESO    H2a27938   5.479   2.208   3.964  2.7304  2.9533 -1.8801
 1745ESO    H2a27939   5.533   2.363   4.003 -2.6835  1.1569 -0.2325
 1745ESO    H2a27940   5.423   2.280   4.120  0.4207 -0.3040 -0.4158
 1746ESO     O127941   1.008   1.665   0.465  0.2240 -0.1800  0.6016
 1746ESO     O127942   0.783   1.731   0.388 -0.0325 -0.5794 -0.3865
 1746ESO     O127943   0.935   1.894   0.492  0.5425 -0.3953  0.4214
 1746ESO      S27944   0.920   1.773   0.415 -0.0628 -0.2569  0.2493
 1746ESO     O227945   0.963   1.823   0.274  0.1833 -0.1149  0.7489
 1746ESO    C1a27946   1.104   1.850   0.247  0.3022  0.6877 -0.1582
 1746ESO    H1a27947   1.150   1.915   0.322 -0.9522 -2.4018 -2.3485
 1746ESO    H1a27948   1.153   1.753   0.246  1.1336 -0.3106 -1.7956
 1746ESO    C2a27949   1.108   1.911   0.118  0.1626  0.3926 -0.4037
 1746ESO    H2a27950   1.051   1.862   0.037 -1.9783  0.0290  0.2490
 1746ESO    H2a27951   1.219   1.906   0.088  0.7189 -0.7730  0.5873
 1746ESO    H2a27952   1.082   2.014   0.122 -0.2847 -2.1187  2.5042
 1747ESO     O127953   6.771   0.538   3.980  0.2205  0.4829 -0.1701
 1747ESO     O127954   6.776   0.302   3.984  0.7118 -0.4469 -0.5073
 1747ESO     O127955   6.850   0.413   3.789 -0.6197 -0.7372  0.5133
 1747ESO      S27956   6.835   0.422   3.932  0.0595  0.8964  0.2034
 1747ESO     O227957   6.981   0.423   3.985 -0.1673 -0.4143 -0.1284
 1747ESO    C1a27958   7.067   0.517   3.930 -0.0206 -0.3773 -0.6561
 1747ESO    H1a27959   7.160   0.464   3.913  0.5948 -3.9174 -1.5159
 1747ESO    H1a27960   7.029   0.549   3.829  1.2980 -1.8658 -0.8581
 1747ESO    C2a27961   7.080   0.641   4.018 -0.0227 -0.6598  0.0819
 1747ESO    H2a27962   6.984   0.695   4.031  1.4104 -0.0881 -0.1747
 1747ESO    H2a27963   7.139   0.716   3.973  1.6000  0.0850 -1.4092
 1747ESO    H2a27964   7.114   0.607   4.110 -2.1062 -0.2880  1.8786
 1748ESO     O127965   6.630   4.124   2.546  0.0588 -0.3577 -1.3087
 1748ESO     O127966   6.862   4.156   2.577 -0.1880 -0.4384  0.4976
 1748ESO     O127967   6.741   4.027   2.738 -0.2991  0.2779 -0.3129
 1748ESO      S27968   6.751   4.071   2.601 -0.0216  0.1723 -0.1469
 1748ESO     O227969   6.791   3.945   2.527  0.0512  0.1977 -0.2096
 1748ESO    C1a27970   6.711   3.830   2.534 -0.5689 -0.3251 -0.3300
 1748ESO    H1a27971   6.742   3.756   2.609 -0.3851  0.2527  1.1407
 1748ESO    H1a27972   6.609   3.846   2.558  0.3453 -0.3089 -0.4755
 1748ESO    C2a27973   6.721   3.766   2.401 -0.4708  0.3852 -0.5373
 1748ESO    H2a27974   6.729   3.835   2.321 -1.2197  0.2823 -1.9980
 1748ESO    H2a27975   6.639   3.696   2.382  0.9298  0.2519 -1.2497
 1748ESO    H2a27976   6.814   3.704   2.409 -0.2291 -0.9980  0.5298
 1749ESO     O127977   5.819   0.720   4.791  0.4509  0.2355 -0.3675
 1749ESO     O127978   5.963   0.733   4.605  0.4309 -0.1434 -0.3206
 1749ESO     O127979   6.058   0.700   4.822  0.3029 -0.3940  0.6449
 1749ESO      S27980   5.943   0.680   4.737  0.1399  0.0873 -0.1520
 1749ESO     O227981   5.925   0.523   4.723 -0.6160  0.0671 -0.3405
 1749ESO    C1a27982   6.038   0.438   4.706  0.4768 -0.3065  0.5963
 1749ESO    H1a27983   6.111   0.488   4.640 -0.0601  0.6558  2.8232
 1749ESO    H1a27984   6.084   0.413   4.797 -1.6441  1.8132 -0.9987
 1749ESO    C2a27985   5.994   0.312   4.640  1.1763 -0.0314 -0.7571
 1749ESO    H2a27986   6.069   0.234   4.639  0.0158  0.3660 -1.7770
 1749ESO    H2a27987   5.952   0.334   4.551  1.5646 -0.7802 -0.8578
 1749ESO    H2a27988   5.913   0.270   4.693  0.2384  2.5262 -2.6307
 1750ESO     O127989   5.521   5.714   4.839  0.0536  0.0428 -0.1143
 1750ESO     O127990   5.736   5.810   4.827  0.0312  0.6478  0.0048
 1750ESO     O127991   5.623   5.796   5.044 -0.3320  0.9170  0.0732
 1750ESO      S27992   5.644   5.738   4.912  0.1452 -0.1623 -0.3246
 1750ESO     O227993   5.719   5.598   4.934  0.3993 -0.1962  0.2578
 1750ESO    C1a27994   5.642   5.494   4.996 -0.2900 -0.2419  0.2453
 1750ESO    H1a27995   5.606   5.522   5.088 -0.6573 -2.5246 -0.8660
 1750ESO    H1a27996   5.565   5.455   4.932 -0.7351  0.7138  1.8911
 1750ESO    C2a27997   5.741   5.391   5.016 -0.7381  0.8658 -0.4980
 1750ESO    H2a27998   5.832   5.433   5.062  0.1841 -0.2117  0.4053
 1750ESO    H2a27999   5.757   5.339   4.920 -2.3284  2.4592 -1.2954
 1750ESO    H2a28000   5.699   5.312   5.083 -3.6549 -0.2099  2.1073
 1751ESO     O128001   1.327   3.768   5.693 -0.5999  0.0810 -0.4092
 1751ESO     O128002   1.220   3.731   5.488  0.0187  0.4485 -0.1189
 1751ESO     O128003   1.340   3.548   5.607 -0.2535 -0.0171  0.3621
 1751ESO      S28004   1.258   3.670   5.614  0.0067  0.1029  0.2444
 1751ESO     O228005   1.127   3.636   5.683  0.1750  0.3125 -0.4286
 1751ESO    C1a28006   1.120   3.600   5.822 -0.1661 -1.0549 -0.0797
 1751ESO    H1a28007   1.169   3.511   5.833 -2.2069 -0.1051 -1.2560
 1751ESO    H1a28008   1.170   3.674   5.880 -1.3095 -0.1776  0.0620
 1751ESO    C2a28009   0.978   3.596   5.862 -0.1741  0.3623 -0.6422
 1751ESO    H2a28010   0.966   3.544   5.952 -1.8461 -1.8541  2.1826
 1751ESO    H2a28011   0.928   3.530   5.790  2.4344  0.7034  0.8728
 1751ESO    H2a28012   0.933   3.692   5.861  1.1985 -0.7094  2.2897
 1752ESO     O128013   2.151   2.047   2.608  0.0220 -0.2929  0.2153
 1752ESO     O128014   1.989   2.026   2.773 -0.4178  0.1324 -0.4171
 1752ESO     O128015   2.181   1.883   2.777  0.0452 -0.2328 -0.2458
 1752ESO      S28016   2.130   2.012   2.743 -0.0543 -0.1453 -0.0439
 1752ESO     O228017   2.210   2.106   2.834 -0.2214 -0.3153 -0.2574
 1752ESO    C1a28018   2.191   2.248   2.821  0.2424  0.6684 -0.4193
 1752ESO    H1a28019   2.239   2.292   2.732  1.0649  0.6190 -0.1577
 1752ESO    H1a28020   2.089   2.282   2.821 -1.9028 -0.0835  0.8237
 1752ESO    C2a28021   2.262   2.303   2.941  0.2168 -0.2091  0.3751
 1752ESO    H2a28022   2.226   2.248   3.028  0.5862  1.2139 -0.3706
 1752ESO    H2a28023   2.244   2.407   2.950  1.4004 -2.4090 -0.2925
 1752ESO    H2a28024   2.367   2.283   2.940  0.5529  1.5421  1.0851
 1753ESO     O128025   5.435   5.078   2.599  0.2407  0.3689  0.2065
 1753ESO     O128026   5.256   5.143   2.464 -0.3161  0.1762 -0.5009
 1753ESO     O128027   5.455   5.055   2.364  0.3138 -0.3860 -0.5576
 1753ESO      S28028   5.365   5.057   2.475 -0.4916 -0.0448  0.1040
 1753ESO     O228029   5.307   4.912   2.469 -0.6905 -0.2686  0.0076
 1753ESO    C1a28030   5.381   4.786   2.489  0.3262  0.2383 -0.1960
 1753ESO    H1a28031   5.443   4.776   2.402 -1.4211 -2.5080  0.7485
 1753ESO    H1a28032   5.446   4.794   2.574 -2.0155 -0.5235  2.3047
 1753ESO    C2a28033   5.280   4.676   2.511 -0.0225 -0.0432 -0.2067
 1753ESO    H2a28034   5.228   4.705   2.607 -0.6052 -3.0619  0.5145
 1753ESO    H2a28035   5.320   4.580   2.530  1.3248  0.7184 -0.8974
 1753ESO    H2a28036   5.211   4.668   2.424  0.7668  1.5827 -4.7318
 1754ESO     O128037   6.083   1.497   2.315 -0.0764 -0.0606  0.9881
 1754ESO     O128038   6.041   1.718   2.244  0.0564  0.7011 -0.2509
 1754ESO     O128039   6.224   1.667   2.389 -0.2280  0.0274  0.1666
 1754ESO      S28040   6.140   1.624   2.286  0.2275 -0.3297  0.3170
 1754ESO     O228041   6.234   1.601   2.165 -0.0537  0.2197 -0.0765
 1754ESO    C1a28042   6.321   1.702   2.103 -0.8349 -0.3111 -0.3166
 1754ESO    H1a28043   6.284   1.797   2.113  3.0752 -0.0622 -2.4107
 1754ESO    H1a28044   6.414   1.700   2.153  0.0828 -0.3460  0.5447
 1754ESO    C2a28045   6.335   1.657   1.956  0.0417 -0.0240 -0.5510
 1754ESO    H2a28046   6.368   1.738   1.898  0.7062 -1.2230 -0.0761
 1754ESO    H2a28047   6.235   1.626   1.915 -0.2032 -2.8685  1.2848
 1754ESO    H2a28048   6.401   1.571   1.937 -0.0772 -1.0111 -3.6872
 1755ESO     O128049   5.208   1.523   1.734 -0.1116  0.8036 -0.1760
 1755ESO     O128050   5.338   1.510   1.538 -0.2555  0.1403 -0.5267
 1755ESO     O128051   5.310   1.726   1.647 -0.5866  0.4693  0.6323
 1755ESO      S28052   5.321   1.581   1.661  0.3259  0.2469  0.1306
 1755ESO     O228053   5.451   1.561   1.735 -0.6242 -0.5250  0.0245
 1755ESO    C1a28054   5.580   1.602   1.690  0.1367  0.2292 -0.2390
 1755ESO    H1a28055   5.611   1.551   1.601 -1.7364  0.8416 -4.0609
 1755ESO    H1a28056   5.581   1.714   1.690 -0.0686 -0.9141  1.9940
 1755ESO    C2a28057   5.675   1.574   1.806  0.1815  0.0093  0.5907
 1755ESO    H2a28058   5.770   1.536   1.769  0.9661 -1.0902  0.9246
 1755ESO    H2a28059   5.633   1.503   1.871  0.6944  2.7975 -1.1002
 1755ESO    H2a28060   5.690   1.657   1.872 -0.3665 -0.4445 -0.8140
 1756ESO     O128061   0.593   1.281   4.846  0.7010 -0.3178 -0.0097
 1756ESO     O128062   0.527   1.424   4.673  0.7566 -0.4890  0.8551
 1756ESO     O128063   0.519   1.506   4.892 -0.5485  0.0336  0.4823
 1756ESO      S28064   0.587   1.417   4.798  0.2467 -0.3345  0.0605
 1756ESO     O228065   0.734   1.473   4.779 -0.6706  0.2337 -0.7298
 1756ESO    C1a28066   0.836   1.376   4.731  0.5429  0.9753 -0.0691
 1756ESO    H1a28067   0.806   1.271   4.757  1.9380  1.7259 -1.2407
 1756ESO    H1a28068   0.839   1.389   4.618 -1.2583  2.2571  0.9789
 1756ESO    C2a28069   0.968   1.403   4.792  0.3896  0.5015  0.3750
 1756ESO    H2a28070   0.982   1.503   4.769 -5.1922 -0.1475 -0.9484
 1756ESO    H2a28071   1.047   1.332   4.748 -0.6720 -2.1040 -2.5102
 1756ESO    H2a28072   0.974   1.391   4.905 -0.1100 -0.8719  0.8168
 1757ESO     O128073   1.991   1.970   6.810 -0.6265  0.6265 -0.7392
 1757ESO     O128074   1.915   2.163   6.926  0.0067 -0.3263  0.3409
 1757ESO     O128075   2.080   2.024   7.029 -0.2651  0.2566  0.4041
 1757ESO      S28076   2.026   2.075   6.905 -0.2011 -0.0140 -0.3344
 1757ESO     O228077   2.136   2.163   6.840  0.4906  0.3190 -0.0246
 1757ESO    C1a28078   2.197   2.265   6.920 -0.2600  0.1091 -0.3752
 1757ESO    H1a28079   2.216   2.342   6.846  2.4779  0.6160 -2.1051
 1757ESO    H1a28080   2.128   2.310   6.988 -1.2411  3.2254  0.6365
 1757ESO    C2a28081   2.326   2.211   6.982 -0.1682 -0.4201 -0.1828
 1757ESO    H2a28082   2.355   2.119   6.928  1.8471 -1.0615  3.1972
 1757ESO    H2a28083   2.311   2.193   7.086 -1.9204  0.3362 -2.9093
 1757ESO    H2a28084   2.411   2.276   6.972 -1.2219  0.5739 -1.8206
 1758ESO     O128085   4.995   5.679   1.835  0.1399  0.3991 -0.6179
 1758ESO     O128086   5.137   5.821   1.974 -0.3401 -0.7594  0.5076
 1758ESO     O128087   4.984   5.923   1.819 -0.4516  0.3306 -0.1913
 1758ESO      S28088   5.010   5.806   1.905  0.0847 -0.1071 -0.0864
 1758ESO     O228089   4.901   5.821   2.024  0.7734 -0.2831 -0.1954
 1758ESO    C1a28090   4.757   5.832   1.984 -0.1007 -0.7768  0.6386
 1758ESO    H1a28091   4.732   5.930   1.942  0.6406  0.1786  0.4766
 1758ESO    H1a28092   4.739   5.754   1.908  0.7949 -1.2465  0.1006
 1758ESO    C2a28093   4.678   5.785   2.105  0.3243  0.2117  0.0042
 1758ESO    H2a28094   4.730   5.708   2.162 -4.0155 -1.3578  0.1400
 1758ESO    H2a28095   4.580   5.748   2.082 -0.6680  0.2124  1.1851
 1758ESO    H2a28096   4.668   5.866   2.175 -0.7793 -0.0959  0.9906
 1759ESO     O128097   4.660   5.832   4.944  0.5574  0.1108  0.1367
 1759ESO     O128098   4.816   5.791   4.775  0.2834 -0.7098  0.4024
 1759ESO     O128099   4.596   5.866   4.724  0.2856  0.2610 -0.1287
 1759ESO      S28100   4.704   5.864   4.813 -0.0027  0.1463  0.3760
 1759ESO     O228101   4.750   6.013   4.837 -0.2819 -0.1701 -0.0176
 1759ESO    C1a28102   4.799   6.089   4.719 -0.1229 -0.0071  0.0902
 1759ESO    H1a28103   4.863   6.026   4.661 -1.8635  0.6011 -0.1883
 1759ESO    H1a28104   4.707   6.109   4.658 -1.3078 -1.0378  0.4450
 1759ESO    C2a28105   4.855   6.226   4.761  0.6535 -0.3011 -0.3349
 1759ESO    H2a28106   4.953   6.205   4.801  1.8297  3.0613  2.2654
 1759ESO    H2a28107   4.790   6.288   4.825  1.8792  0.5670  1.7166
 1759ESO    H2a28108   4.869   6.273   4.659 -2.4949 -1.6979 -2.4614
 1760ESO     O128109   3.396   1.960   0.239 -0.5231 -0.0278 -0.0933
 1760ESO     O128110   3.589   2.103   0.255  0.1774 -0.2710  0.7651
 1760ESO     O128111   3.497   2.041   0.041  0.0368 -0.9891  0.3140
 1760ESO      S28112   3.472   2.067   0.177 -0.4066  0.0904 -0.2911
 1760ESO     O228113   3.388   2.196   0.186 -0.1561 -0.2682  0.5602
 1760ESO    C1a28114   3.317   2.223   0.308 -0.3425  0.0988  0.4547
 1760ESO    H1a28115   3.231   2.159   0.313  0.6231  0.9542  0.0894
 1760ESO    H1a28116   3.373   2.189   0.394 -3.8292 -2.7897 -0.0111
 1760ESO    C2a28117   3.271   2.370   0.318  0.1448 -0.4040 -0.3497
 1760ESO    H2a28118   3.349   2.443   0.303 -0.3927 -0.3327  2.2607
 1760ESO    H2a28119   3.237   2.379   0.422 -3.2281  3.5144 -0.8229
 1760ESO    H2a28120   3.187   2.388   0.249  0.2262 -0.5708  0.0385
 1761ESO     O128121   0.522   3.143   2.836  1.0734 -0.3977  0.1143
 1761ESO     O128122   0.473   2.917   2.806 -0.0153 -0.1108 -0.7156
 1761ESO     O128123   0.325   3.051   2.937 -0.1542  0.5009 -0.0595
 1761ESO      S28124   0.421   3.046   2.829  0.2453  0.5841 -0.2711
 1761ESO     O228125   0.339   3.082   2.695  0.8401 -0.1283 -0.3712
 1761ESO    C1a28126   0.225   2.994   2.647  0.2837 -0.3450 -0.1879
 1761ESO    H1a28127   0.236   2.898   2.699  0.5722  0.0038  1.6482
 1761ESO    H1a28128   0.127   3.045   2.666 -0.8341 -1.5467  1.9406
 1761ESO    C2a28129   0.250   2.982   2.496 -0.3943 -0.3934  0.0085
 1761ESO    H2a28130   0.183   2.918   2.441 -0.8982 -1.9101 -1.3028
 1761ESO    H2a28131   0.354   2.955   2.477  1.6124  0.6949  0.0362
 1761ESO    H2a28132   0.237   3.077   2.453 -0.4481 -1.3972 -1.8477
 1762ESO     O128133   1.483   1.518   2.534  0.8067  0.1263 -0.0063
 1762ESO     O128134   1.430   1.672   2.699  0.3562  0.0800 -0.2727
 1762ESO     O128135   1.406   1.739   2.475  0.2237  0.8991 -0.0951
 1762ESO      S28136   1.402   1.629   2.568  0.4869  0.3457  0.1689
 1762ESO     O228137   1.257   1.587   2.570 -0.5349  0.4484 -0.7591
 1762ESO    C1a28138   1.229   1.474   2.655 -0.2842  0.3286  0.1084
 1762ESO    H1a28139   1.275   1.387   2.612  1.3939  1.2192 -2.0406
 1762ESO    H1a28140   1.282   1.492   2.752  0.7739  1.6637  1.4670
 1762ESO    C2a28141   1.079   1.457   2.672 -0.0543  0.0674 -0.2883
 1762ESO    H2a28142   1.036   1.452   2.574 -2.1704 -2.5908  1.7367
 1762ESO    H2a28143   1.050   1.543   2.734 -1.6904 -0.4548  0.1954
 1762ESO    H2a28144   1.060   1.371   2.740  1.3338  2.0251 -0.6541
 1763ESO     O128145   4.493   1.354   5.011 -0.3910 -0.1448  0.4666
 1763ESO     O128146   4.550   1.215   5.191  0.3410 -0.1919  0.0344
 1763ESO     O128147   4.388   1.381   5.236  0.0258 -0.1204  0.5268
 1763ESO      S28148   4.447   1.293   5.136  0.0610 -0.1656  0.0594
 1763ESO     O228149   4.331   1.194   5.100 -0.1656 -0.7170  0.3991
 1763ESO    C1a28150   4.240   1.149   5.207  0.2827  0.1768 -0.7437
 1763ESO    H1a28151   4.280   1.185   5.303 -0.6259  0.6033  1.6650
 1763ESO    H1a28152   4.142   1.188   5.186  1.9220  1.6280 -1.4444
 1763ESO    C2a28153   4.245   0.999   5.198 -0.0441  0.2434 -0.0817
 1763ESO    H2a28154   4.184   0.956   5.114 -0.6401  1.4840  1.3065
 1763ESO    H2a28155   4.203   0.972   5.293  3.1254 -0.0591  0.0541
 1763ESO    H2a28156   4.351   0.974   5.188  1.5355 -0.5357  0.6437
 1764ESO     O128157   5.506   6.028   4.497 -0.0846  0.4808  0.1815
 1764ESO     O128158   5.306   5.922   4.411  0.5805  0.7312 -0.0835
 1764ESO     O128159   5.295   6.030   4.623  0.0540 -0.0420  0.3279
 1764ESO      S28160   5.358   6.028   4.494  0.1651 -0.1640 -0.2803
 1764ESO     O228161   5.319   6.171   4.436  0.5381 -0.2912  0.2698
 1764ESO    C1a28162   5.357   6.279   4.519 -0.0061  0.0868  0.5993
 1764ESO    H1a28163   5.369   6.247   4.625 -1.9333 -2.0870  1.8245
 1764ESO    H1a28164   5.439   6.330   4.476 -0.0340 -0.2206  0.5139
 1764ESO    C2a28165   5.239   6.371   4.524 -0.1590  0.2678 -0.7283
 1764ESO    H2a28166   5.263   6.455   4.593 -0.1901  0.1812 -0.5107
 1764ESO    H2a28167   5.140   6.329   4.545 -1.0852 -1.4741  0.0547
 1764ESO    H2a28168   5.221   6.418   4.429  1.9046  1.3634  0.0028
 1765ESO     O128169   3.668   5.796   5.120 -0.1198  0.0280 -0.1061
 1765ESO     O128170   3.875   5.917   5.117 -0.1383  0.5249 -0.2070
 1765ESO     O128171   3.825   5.772   5.301 -0.0848 -0.1092 -0.2195
 1765ESO      S28172   3.808   5.801   5.161  0.2980 -0.0608 -0.3937
 1765ESO     O228173   3.876   5.681   5.083  0.0656  0.5690 -0.0129
 1765ESO    C1a28174   4.014   5.648   5.106 -0.2053  0.3246  0.5273
 1765ESO    H1a28175   4.064   5.740   5.100 -0.6224 -0.7756 -0.3674
 1765ESO    H1a28176   4.027   5.604   5.204  0.0911 -0.5651  1.8051
 1765ESO    C2a28177   4.044   5.552   4.987  0.3908  0.1121 -0.1103
 1765ESO    H2a28178   3.992   5.459   4.996 -0.3841 -2.2447 -0.7229
 1765ESO    H2a28179   4.153   5.548   4.988 -0.6683 -0.0577  1.3139
 1765ESO    H2a28180   4.021   5.582   4.887  1.8626 -0.1251  2.3088
 1766ESO     O128181   6.358   0.749   2.053 -0.3433 -0.4210  0.0266
 1766ESO     O128182   6.473   0.668   1.855 -0.1250 -0.4097 -0.4258
 1766ESO     O128183   6.470   0.898   1.908  0.0730 -0.1807 -0.3358
 1766ESO      S28184   6.467   0.770   1.961 -0.8126  0.0166 -0.6659
 1766ESO     O228185   6.592   0.742   2.048 -0.0288  0.2281 -0.1387
 1766ESO    C1a28186   6.610   0.823   2.166  0.3078  1.2305  0.5790
 1766ESO    H1a28187   6.553   0.914   2.160 -1.0098 -1.5743  0.1137
 1766ESO    H1a28188   6.583   0.766   2.252  0.4723  2.9267 -0.7257
 1766ESO    C2a28189   6.758   0.842   2.185  1.1850  0.5909  0.2124
 1766ESO    H2a28190   6.808   0.900   2.114 -1.0905  1.7131  0.9563
 1766ESO    H2a28191   6.805   0.748   2.204  0.5012  1.2752 -0.6440
 1766ESO    H2a28192   6.770   0.899   2.277 -1.0914  0.2582 -0.9591
 1767ESO     O128193   5.713   0.295   2.141 -0.2831  0.8018  0.4417
 1767ESO     O128194   5.880   0.190   2.008 -0.7145 -0.2753  0.0989
 1767ESO     O128195   5.664   0.091   2.026  0.3412 -0.0721  0.3718
 1767ESO      S28196   5.740   0.214   2.023 -0.1700  0.0076  0.0514
 1767ESO     O228197   5.683   0.299   1.906 -0.0292  0.6643  0.2238
 1767ESO    C1a28198   5.696   0.230   1.775 -0.1719 -0.4672 -0.0398
 1767ESO    H1a28199   5.762   0.144   1.772  0.4249 -0.9726  1.3949
 1767ESO    H1a28200   5.602   0.201   1.726 -0.6640  0.3561 -0.3273
 1767ESO    C2a28201   5.745   0.347   1.685  0.9976  1.0270 -0.2267
 1767ESO    H2a28202   5.755   0.315   1.583 -2.6191 -0.8602  1.1057
 1767ESO    H2a28203   5.841   0.387   1.713  0.8523 -0.4812 -0.2496
 1767ESO    H2a28204   5.667   0.425   1.672 -1.3173  0.4383  0.0335
 1768ESO     O128205   4.497   3.130   0.241  0.4282  0.1538  0.6903
 1768ESO     O128206   4.555   3.219   0.025 -0.0444  0.2835  0.0094
 1768ESO     O128207   4.523   2.987   0.044  0.3465  0.4186 -0.0208
 1768ESO      S28208   4.484   3.117   0.100  0.2744  0.5498 -0.0243
 1768ESO     O228209   4.343   3.145   0.068  0.2588 -0.5982  0.0262
 1768ESO    C1a28210   4.239   3.046   0.033  0.3137  0.5199  0.3878
 1768ESO    H1a28211   4.169   3.081  -0.044 -1.9701  0.7917 -0.9899
 1768ESO    H1a28212   4.280   2.947  -0.005 -1.1414  0.6023 -1.0140
 1768ESO    C2a28213   4.159   3.041   0.158 -0.3973  0.6310  0.1583
 1768ESO    H2a28214   4.103   3.132   0.160  1.2365 -0.2624  2.4399
 1768ESO    H2a28215   4.228   3.043   0.239  2.4502  3.4883 -1.5312
 1768ESO    H2a28216   4.092   2.955   0.156  0.1922  0.9872 -0.1521
 1769ESO     O128217   0.800   5.627   5.069 -0.3300 -0.3426 -0.4932
 1769ESO     O128218   0.911   5.413   5.101  0.2658  0.3526 -0.1887
 1769ESO     O128219   1.038   5.616   5.063 -0.1388 -0.6039 -0.8282
 1769ESO      S28220   0.917   5.555   5.115 -0.1116 -0.3210 -0.2097
 1769ESO     O228221   0.929   5.578   5.273  0.3967  0.1767 -0.4222
 1769ESO    C1a28222   1.035   5.513   5.347  0.0943 -0.2629  0.1374
 1769ESO    H1a28223   1.091   5.438   5.288  1.6919  0.6441  2.2828
 1769ESO    H1a28224   1.106   5.595   5.381 -1.7242 -0.6786 -2.6836
 1769ESO    C2a28225   0.959   5.449   5.462 -0.2781  0.0349 -0.5492
 1769ESO    H2a28226   0.874   5.397   5.427 -1.7498 -2.0303 -0.3281
 1769ESO    H2a28227   0.933   5.525   5.535  1.7353  0.4364 -0.4061
 1769ESO    H2a28228   1.034   5.381   5.511  1.4577  0.9673 -2.3420
 1770ESO     O128229   3.790   5.256   2.919 -0.1706 -0.0143 -0.2378
 1770ESO     O128230   3.703   5.146   3.116  0.6413  0.1374 -0.2053
 1770ESO     O128231   3.642   5.060   2.903  0.0809 -0.5341 -0.2536
 1770ESO      S28232   3.741   5.133   2.977 -0.3132  0.1440 -0.1280
 1770ESO     O228233   3.869   5.043   2.978 -0.5315 -0.4368 -0.3433
 1770ESO    C1a28234   3.919   4.976   2.863  0.1161 -0.0941 -0.1439
 1770ESO    H1a28235   3.846   4.895   2.828 -0.7188 -0.9812 -1.4179
 1770ESO    H1a28236   3.933   5.037   2.771  2.1356  0.3203 -0.4709
 1770ESO    C2a28237   4.052   4.915   2.903  0.1358  0.2268 -0.4725
 1770ESO    H2a28238   4.107   4.881   2.821 -2.4114 -1.3831  0.1635
 1770ESO    H2a28239   4.025   4.833   2.972 -0.9247 -0.8182  0.0244
 1770ESO    H2a28240   4.103   5.000   2.951 -0.3633  0.8965 -0.0625
 1771ESO     O128241   2.854   5.404   3.010 -0.1876 -0.6771 -0.5496
 1771ESO     O128242   3.003   5.301   3.163  0.6992 -0.0545  0.9194
 1771ESO     O128243   3.062   5.320   2.932 -0.2760  0.0461  0.5641
 1771ESO      S28244   2.991   5.377   3.039 -0.1929 -0.0538 -0.0116
 1771ESO     O228245   3.069   5.520   3.065  0.1445  0.1579  0.1739
 1771ESO    C1a28246   2.995   5.625   3.143 -0.0329  0.1077 -0.0929
 1771ESO    H1a28247   2.888   5.588   3.160  0.9201 -0.2343  3.7664
 1771ESO    H1a28248   3.046   5.662   3.234 -2.2204  2.0386  0.9832
 1771ESO    C2a28249   2.991   5.744   3.055  0.8491  0.4179 -0.9043
 1771ESO    H2a28250   3.090   5.769   3.019 -1.7765 -2.1444 -0.2759
 1771ESO    H2a28251   2.964   5.834   3.113  1.9080 -2.2578  1.3234
 1771ESO    H2a28252   2.942   5.723   2.958 -1.9228 -0.9219  0.3980
 1772ESO     O128253   5.671   1.233   0.868  0.4326 -0.1749  0.1296
 1772ESO     O128254   5.484   1.153   0.734 -0.2992 -0.1980  0.4572
 1772ESO     O128255   5.550   1.038   0.932  0.4131  0.5330 -0.4828
 1772ESO      S28256   5.543   1.168   0.868  0.0684  0.1325 -0.3759
 1772ESO     O228257   5.445   1.257   0.952  0.2918  0.1661 -0.8276
 1772ESO    C1a28258   5.296   1.251   0.928 -0.0303 -0.6297 -1.0256
 1772ESO    H1a28259   5.242   1.342   0.962  1.1140 -1.0965 -0.0241
 1772ESO    H1a28260   5.273   1.248   0.822  0.1066  1.5834 -1.4649
 1772ESO    C2a28261   5.242   1.135   1.004 -0.9939  0.4556 -0.7401
 1772ESO    H2a28262   5.139   1.130   0.991 -0.5972 -2.0121 -1.0076
 1772ESO    H2a28263   5.266   1.139   1.115 -2.8694 -1.3332  2.4749
 1772ESO    H2a28264   5.282   1.044   0.968  1.0774  2.7753  0.7086
 1773ESO     O128265   4.839   3.369   6.415 -0.3126  0.3618  0.0142
 1773ESO     O128266   4.718   3.490   6.252  0.2277  0.4667 -0.0028
 1773ESO     O128267   4.659   3.262   6.310  0.7275 -0.0224 -0.2883
 1773ESO      S28268   4.713   3.391   6.355  0.1471 -0.0503  0.5282
 1773ESO     O228269   4.621   3.460   6.470  0.5863  0.9548 -0.0921
 1773ESO    C1a28270   4.585   3.383   6.581 -0.2040  0.2921  0.3748
 1773ESO    H1a28271   4.568   3.280   6.555 -0.0163  0.7331  1.1900
 1773ESO    H1a28272   4.659   3.382   6.661 -0.8434 -0.3088 -1.2149
 1773ESO    C2a28273   4.462   3.451   6.643 -0.2653 -0.0586 -0.3273
 1773ESO    H2a28274   4.489   3.550   6.678 -2.2200 -1.9527  1.1475
 1773ESO    H2a28275   4.433   3.409   6.743  2.4554 -0.5289  0.9808
 1773ESO    H2a28276   4.372   3.457   6.580  0.6957  1.6402  0.7716
 1774ESO     O128277   5.249   4.484   6.076 -0.2427 -0.1243 -0.3869
 1774ESO     O128278   5.160   4.265   6.031 -0.9323  0.0577 -0.1124
 1774ESO     O128279   5.201   4.415   5.854 -1.0001  0.1218 -0.6092
 1774ESO      S28280   5.242   4.374   5.983  0.3858 -0.2029 -0.2921
 1774ESO     O228281   5.392   4.313   5.984 -0.2682  0.0464 -0.5600
 1774ESO    C1a28282   5.413   4.185   5.921  0.1099 -0.3441 -0.2024
 1774ESO    H1a28283   5.321   4.126   5.944 -1.0602 -0.5673  0.4446
 1774ESO    H1a28284   5.432   4.196   5.813  2.7632  1.7135  1.2904
 1774ESO    C2a28285   5.528   4.125   5.993  0.2374  0.7157  0.0791
 1774ESO    H2a28286   5.534   4.153   6.091  0.0381 -1.2468  0.3715
 1774ESO    H2a28287   5.624   4.162   5.965 -2.6345 -1.1117 -1.3520
 1774ESO    H2a28288   5.525   4.014   5.980  0.1929 -1.6927 -0.6454
 1775ESO     O128289   3.471   2.569   0.577 -0.3822 -0.3893 -0.0300
 1775ESO     O128290   3.351   2.716   0.720 -0.5457 -0.0115 -0.4670
 1775ESO     O128291   3.574   2.654   0.771  0.5415  0.1937 -0.0108
 1775ESO      S28292   3.479   2.679   0.667  0.4165 -0.1965 -0.1317
 1775ESO     O228293   3.533   2.806   0.589 -0.7685  0.3606  0.5057
 1775ESO    C1a28294   3.537   2.931   0.647  0.0643 -0.8203 -0.1121
 1775ESO    H1a28295   3.456   2.931   0.727 -1.9706 -0.2200 -2.2079
 1775ESO    H1a28296   3.638   2.940   0.686 -1.2239  0.3696 -1.1502
 1775ESO    C2a28297   3.501   3.036   0.546  0.3852 -0.8881 -0.0670
 1775ESO    H2a28298   3.409   3.013   0.489 -2.2015  0.9254  0.9241
 1775ESO    H2a28299   3.588   3.056   0.483  2.5710 -1.6056  0.0224
 1775ESO    H2a28300   3.477   3.126   0.589 -1.5587  0.1158 -1.3306
 1776ESO     O128301   0.970   4.283   4.812  0.1588 -0.0633  0.0264
 1776ESO     O128302   1.101   4.213   4.623  0.6118 -0.9312 -0.1088
 1776ESO     O128303   1.087   4.445   4.680  0.9817 -0.0793 -0.3421
 1776ESO      S28304   1.084   4.310   4.727  0.4744  0.0426  0.0424
 1776ESO     O228305   1.202   4.294   4.824 -0.1679 -0.4080 -0.1637
 1776ESO    C1a28306   1.246   4.170   4.878 -0.6187  0.3765  0.1902
 1776ESO    H1a28307   1.151   4.109   4.891 -2.5751  1.5679  1.5805
 1776ESO    H1a28308   1.317   4.123   4.808 -0.2611 -1.0706  4.2076
 1776ESO    C2a28309   1.322   4.190   5.006 -0.6861  0.4097  0.3976
 1776ESO    H2a28310   1.293   4.271   5.069  0.9602 -0.2233  1.1608
 1776ESO    H2a28311   1.427   4.214   4.983  0.6679 -2.9282  1.7234
 1776ESO    H2a28312   1.312   4.096   5.061 -3.0022  2.1333 -0.9391
 1777ESO     O128313   0.749   5.756   4.684 -0.0721 -0.2478  0.3414
 1777ESO     O128314   0.517   5.761   4.724  0.1079 -0.1749 -0.6077
 1777ESO     O128315   0.640   5.957   4.674  0.6934 -0.6124  0.5639
 1777ESO      S28316   0.630   5.818   4.648 -0.0185  0.0062  0.1999
 1777ESO     O228317   0.603   5.793   4.490  0.4344 -0.6799  0.4486
 1777ESO    C1a28318   0.690   5.854   4.389  0.2778  0.6429 -0.0784
 1777ESO    H1a28319   0.797   5.857   4.427  2.7846 -1.6178 -0.9169
 1777ESO    H1a28320   0.692   5.781   4.306 -2.4457  1.1703 -0.1027
 1777ESO    C2a28321   0.637   5.999   4.354  0.4393  0.2983 -0.0226
 1777ESO    H2a28322   0.635   6.069   4.439 -1.6697  1.2358 -3.0383
 1777ESO    H2a28323   0.530   5.985   4.334  2.0174 -0.1108 -0.7120
 1777ESO    H2a28324   0.676   6.040   4.263  0.1418 -0.2505 -0.3961
 1778ESO     O128325   1.207   6.688   6.316 -0.3772  0.1053  0.3606
 1778ESO     O128326   1.056   6.490   6.349  0.0188 -0.3039 -0.2559
 1778ESO     O128327   1.014   6.701   6.464  0.2836  0.1308 -0.5504
 1778ESO      S28328   1.071   6.635   6.345  0.2345 -0.0487  0.5986
 1778ESO     O228329   0.983   6.683   6.221  0.0084 -0.5221 -0.5841
 1778ESO    C1a28330   1.034   6.669   6.087 -0.1870  0.0656 -0.3242
 1778ESO    H1a28331   1.127   6.612   6.093 -0.3273 -0.5577  0.8868
 1778ESO    H1a28332   0.965   6.607   6.030 -2.5547  1.5326  0.6436
 1778ESO    C2a28333   1.062   6.804   6.019  0.3665 -0.3351 -0.7279
 1778ESO    H2a28334   1.149   6.852   6.076 -1.1238 -0.5708  1.9453
 1778ESO    H2a28335   0.982   6.877   6.032  1.4659  0.1639  2.0997
 1778ESO    H2a28336   1.074   6.801   5.912  1.2778  2.1303 -2.2227
 1779ESO     O128337   2.650   0.876   1.788  0.0614 -0.5274  0.2213
 1779ESO     O128338   2.463   0.766   1.676 -0.0366  0.1165  0.8267
 1779ESO     O128339   2.506   1.003   1.638  0.5242 -0.5112 -0.0729
 1779ESO      S28340   2.561   0.872   1.673  0.3113 -0.0727 -0.2127
 1779ESO     O228341   2.666   0.843   1.557 -0.1611 -0.3795 -0.1580
 1779ESO    C1a28342   2.607   0.811   1.427 -0.5667  0.2032  0.3512
 1779ESO    H1a28343   2.565   0.704   1.429  0.7779  0.4276 -1.5282
 1779ESO    H1a28344   2.525   0.884   1.409  1.2044  2.3501  0.9455
 1779ESO    C2a28345   2.710   0.836   1.319  0.5927 -0.1887  0.2832
 1779ESO    H2a28346   2.782   0.758   1.322 -1.3864  0.5709 -0.9015
 1779ESO    H2a28347   2.758   0.931   1.348 -1.4598 -0.3343  2.7236
 1779ESO    H2a28348   2.673   0.838   1.215 -2.5132 -0.5182 -0.2632
 1780ESO     O128349   1.878   0.155   0.352 -0.5577 -0.0676 -0.2217
 1780ESO     O128350   1.717   0.058   0.491 -0.2093 -0.0782  0.0072
 1780ESO     O128351   1.881  -0.083   0.393  0.2616 -0.6051  0.2887
 1780ESO      S28352   1.850   0.049   0.444  0.6438 -0.0194  0.1619
 1780ESO     O228353   1.943   0.080   0.574  0.2517  0.4271 -0.3302
 1780ESO    C1a28354   2.061   0.003   0.620 -0.0964 -0.2912 -0.2582
 1780ESO    H1a28355   2.069  -0.078   0.552  1.9346  1.0964 -1.5857
 1780ESO    H1a28356   2.143   0.077   0.615 -0.0833  3.7426  3.2364
 1780ESO    C2a28357   2.043  -0.040   0.767  0.2792  0.8911  0.1718
 1780ESO    H2a28358   2.114   0.010   0.838  1.9225  1.7658 -0.3152
 1780ESO    H2a28359   2.068  -0.148   0.777 -1.8470  1.6726 -2.5184
 1780ESO    H2a28360   1.934  -0.037   0.807 -2.1367 -2.3677 -0.4531
 1781ESO     O128361   5.568   2.606   1.077 -0.1403  0.2600  0.4955
 1781ESO     O128362   5.416   2.795   1.065  0.2841 -0.8286 -0.7872
 1781ESO     O128363   5.511   2.739   1.273 -0.3482  0.6817  0.7118
 1781ESO      S28364   5.530   2.735   1.131  0.1702  0.4333  0.0314
 1781ESO     O228365   5.652   2.833   1.096  0.7239  0.6487  0.3234
 1781ESO    C1a28366   5.781   2.802   1.139 -0.1157  0.2781 -0.5276
 1781ESO    H1a28367   5.788   2.837   1.240 -3.6176  1.7454  1.0846
 1781ESO    H1a28368   5.796   2.693   1.122 -2.4270 -1.0753 -2.1914
 1781ESO    C2a28369   5.872   2.868   1.048 -0.3215 -0.2875  0.1800
 1781ESO    H2a28370   5.973   2.844   1.082  2.9127  0.7432  1.5407
 1781ESO    H2a28371   5.863   2.977   1.058 -0.6558 -0.2124  1.6826
 1781ESO    H2a28372   5.867   2.841   0.941 -2.9092 -0.6716  2.2091
 1782ESO     O128373   1.780   3.737   4.943  0.6302  0.3358  0.3568
 1782ESO     O128374   1.843   3.795   5.159  0.1845 -0.0118 -0.5424
 1782ESO     O128375   1.687   3.933   5.043 -0.3255  0.2105  0.5427
 1782ESO      S28376   1.735   3.801   5.066 -0.0808 -0.1067  0.3278
 1782ESO     O228377   1.618   3.719   5.129 -0.5076  1.1690 -0.0700
 1782ESO    C1a28378   1.629   3.579   5.140  0.0599 -0.5563  0.0240
 1782ESO    H1a28379   1.650   3.533   5.047 -2.4041  0.5773  3.2870
 1782ESO    H1a28380   1.703   3.555   5.218 -1.3806  0.3005  1.1822
 1782ESO    C2a28381   1.495   3.531   5.191  0.0657 -0.4869 -0.6867
 1782ESO    H2a28382   1.453   3.587   5.281 -2.2128  1.4504  1.4902
 1782ESO    H2a28383   1.504   3.425   5.218 -1.8073  0.3512 -1.0594
 1782ESO    H2a28384   1.432   3.537   5.097  0.1982 -0.1741  1.2869
 1783ESO     O128385   6.752   5.784   3.085 -0.6829 -0.0299 -0.2429
 1783ESO     O128386   6.574   5.633   3.149  0.2533  0.3030  0.5177
 1783ESO     O128387   6.784   5.653   3.280 -0.0264 -0.3358 -0.2922
 1783ESO      S28388   6.687   5.716   3.191  0.2909  0.0195  0.1037
 1783ESO     O228389   6.632   5.835   3.277 -0.3124  0.5552  0.0985
 1783ESO    C1a28390   6.496   5.884   3.244 -0.9547 -0.0114 -0.3211
 1783ESO    H1a28391   6.478   5.886   3.136 -3.2496  0.2445  0.5221
 1783ESO    H1a28392   6.414   5.822   3.293 -1.9944 -0.7340  0.8715
 1783ESO    C2a28393   6.501   6.034   3.282 -0.3382 -0.1597  0.4103
 1783ESO    H2a28394   6.590   6.084   3.246  0.4787 -0.7014  1.3348
 1783ESO    H2a28395   6.493   6.051   3.383 -1.8252 -0.0900 -1.3345
 1783ESO    H2a28396   6.412   6.083   3.238 -0.7355  2.9215  1.0323
 1784ESO     O128397   5.667   2.430   6.435 -1.1141  0.2186 -0.4490
 1784ESO     O128398   5.466   2.556   6.457  0.3783  0.6314 -0.5165
 1784ESO     O128399   5.515   2.441   6.257 -0.3873  0.3697  0.4190
 1784ESO      S28400   5.534   2.438   6.398 -0.3606  0.1085  0.1266
 1784ESO     O228401   5.468   2.301   6.453  0.3319  0.4125 -0.5380
 1784ESO    C1a28402   5.521   2.175   6.401  0.9288  0.0648 -0.2844
 1784ESO    H1a28403   5.559   2.195   6.296  0.1627  1.7080 -1.2669
 1784ESO    H1a28404   5.608   2.148   6.459  0.2496 -0.4026  1.0047
 1784ESO    C2a28405   5.416   2.068   6.407  0.0886  0.5319 -0.7916
 1784ESO    H2a28406   5.355   2.086   6.499 -1.3757  1.1729  2.3772
 1784ESO    H2a28407   5.456   1.963   6.412 -1.2503 -2.4694 -0.7173
 1784ESO    H2a28408   5.345   2.074   6.324 -1.7931  0.9788  0.9675
 1785ESO     O128409   0.933   5.679   3.431  0.2277 -0.0286 -0.5000
 1785ESO     O128410   1.079   5.487   3.384 -0.1673  0.0292  0.0653
 1785ESO     O128411   1.173   5.704   3.406 -0.2263 -0.3388  0.2579
 1785ESO      S28412   1.066   5.619   3.445  0.2220 -0.3155 -0.0991
 1785ESO     O228413   1.083   5.607   3.601  1.0326  0.4798 -0.2255
 1785ESO    C1a28414   1.203   5.546   3.659 -0.8095  0.4543 -0.3750
 1785ESO    H1a28415   1.184   5.462   3.730  0.2434 -1.0973 -1.1014
 1785ESO    H1a28416   1.262   5.506   3.582  0.9074  0.1956  1.6606
 1785ESO    C2a28417   1.280   5.650   3.744 -0.2980  0.6046 -0.3875
 1785ESO    H2a28418   1.214   5.701   3.809  3.4809 -1.6723 -0.8282
 1785ESO    H2a28419   1.333   5.722   3.682 -2.5429  1.7058 -1.5099
 1785ESO    H2a28420   1.353   5.589   3.802  0.1365  0.9510  0.0726
 1786ESO     O128421   2.954   4.152   2.723 -0.8403 -0.1161  0.2453
 1786ESO     O128422   2.733   4.251   2.749 -0.3195  0.1846 -0.2551
 1786ESO     O128423   2.877   4.222   2.936  0.4824 -0.6530 -0.1796
 1786ESO      S28424   2.868   4.245   2.794  0.2431  0.3647 -0.0770
 1786ESO     O228425   2.947   4.383   2.776  0.1186 -0.7399  0.5025
 1786ESO    C1a28426   2.967   4.433   2.641  0.6666 -0.4081 -0.6405
 1786ESO    H1a28427   3.031   4.359   2.595 -1.7765 -2.8689  3.7895
 1786ESO    H1a28428   2.870   4.425   2.592  1.4819  0.6831  1.9027
 1786ESO    C2a28429   3.037   4.559   2.639  0.0228 -0.0376 -0.2939
 1786ESO    H2a28430   3.047   4.599   2.534  1.9664  1.6948  1.8805
 1786ESO    H2a28431   3.138   4.535   2.673 -0.3804 -0.8691  0.4522
 1786ESO    H2a28432   2.997   4.641   2.701  3.7412 -3.4841 -2.5822
 1787ESO     O128433   1.994   5.664   3.997  0.6934 -0.0480  0.5944
 1787ESO     O128434   2.184   5.718   4.137 -0.4311  0.1478 -0.2574
 1787ESO     O128435   2.216   5.665   3.912  0.4310  0.4299 -0.0454
 1787ESO      S28436   2.125   5.721   4.005 -0.1601 -0.1996  0.0735
 1787ESO     O228437   2.106   5.864   3.960 -0.3703 -0.5950  0.4676
 1787ESO    C1a28438   2.222   5.955   3.965  0.7399 -0.3112  0.0265
 1787ESO    H1a28439   2.267   5.953   4.057  0.4728  1.9967 -0.4492
 1787ESO    H1a28440   2.293   5.931   3.883 -0.6524 -2.0695 -0.4061
 1787ESO    C2a28441   2.162   6.092   3.938 -0.6597 -0.0419 -0.8233
 1787ESO    H2a28442   2.243   6.158   3.913 -0.4822  4.1917 -0.0380
 1787ESO    H2a28443   2.113   6.139   4.026 -0.4774  2.5778 -3.6783
 1787ESO    H2a28444   2.092   6.100   3.856  0.9661  0.1321  3.7038
 1788ESO     O128445   5.159   2.883   4.804  0.1741 -0.3660 -0.2168
 1788ESO     O128446   5.349   3.031   4.846  0.1491 -0.0130 -0.3884
 1788ESO     O128447   5.245   2.920   5.027  0.4827  0.3017  0.0214
 1788ESO      S28448   5.277   2.914   4.886  0.2872  0.3327 -0.2049
 1788ESO     O228449   5.377   2.793   4.863  0.3814  0.3729  0.5847
 1788ESO    C1a28450   5.415   2.779   4.720 -0.1618 -0.0902 -0.7183
 1788ESO    H1a28451   5.361   2.850   4.654  1.8734  3.3027 -2.7076
 1788ESO    H1a28452   5.518   2.798   4.699  0.0048 -1.7096  2.3892
 1788ESO    C2a28453   5.375   2.645   4.666  0.1010  0.3934 -0.2271
 1788ESO    H2a28454   5.409   2.561   4.728  0.2288 -0.7551  2.1701
 1788ESO    H2a28455   5.392   2.632   4.559 -1.3524  0.7580 -2.2230
 1788ESO    H2a28456   5.267   2.646   4.673 -1.4882  0.7389  1.7590
 1789ESO     O128457   4.780   5.912   3.856  0.1339  0.1372 -0.9716
 1789ESO     O128458   4.853   6.084   3.714  0.1662 -0.0008 -0.1092
 1789ESO     O128459   4.625   6.023   3.716  0.5514  0.4620  0.0543
 1789ESO      S28460   4.744   6.036   3.795 -0.4455 -0.0157 -0.0849
 1789ESO     O228461   4.722   6.142   3.909  0.1045 -0.1018 -0.3745
 1789ESO    C1a28462   4.667   6.271   3.877 -0.2083  0.3590  0.7578
 1789ESO    H1a28463   4.751   6.336   3.868  4.2342 -2.7634 -0.0735
 1789ESO    H1a28464   4.610   6.280   3.787 -1.2677 -0.0026  0.0198
 1789ESO    C2a28465   4.589   6.323   4.002 -0.1546  0.5577 -0.2524
 1789ESO    H2a28466   4.526   6.414   3.996 -2.1714 -1.1663 -0.3736
 1789ESO    H2a28467   4.650   6.317   4.096 -1.3252  1.1123  1.7499
 1789ESO    H2a28468   4.512   6.256   4.031 -0.8034 -1.2142  0.0925
 1790ESO     O128469   2.363   0.946   1.131  0.1950 -0.4261 -0.3868
 1790ESO     O128470   2.484   0.909   0.928 -0.4545  0.5290 -0.1115
 1790ESO     O128471   2.300   1.058   0.923  0.1266  0.0453 -0.8674
 1790ESO      S28472   2.404   1.001   1.009 -0.0994 -0.2309  0.3344
 1790ESO     O228473   2.494   1.124   1.041 -0.8372 -0.0310 -0.2705
 1790ESO    C1a28474   2.616   1.105   1.120 -0.1357 -0.3958 -0.8362
 1790ESO    H1a28475   2.583   1.085   1.224  0.2412  0.6321 -3.1042
 1790ESO    H1a28476   2.678   1.033   1.070 -1.9656 -2.5312  0.7224
 1790ESO    C2a28477   2.672   1.245   1.122  0.2487  0.1083  0.7206
 1790ESO    H2a28478   2.589   1.314   1.149 -0.2854 -0.4916 -0.5669
 1790ESO    H2a28479   2.712   1.249   1.023 -1.8049  0.9835 -0.4518
 1790ESO    H2a28480   2.744   1.252   1.204  1.4542  0.8750 -0.7251
 1791ESO     O128481   6.162   1.369   1.595  0.3570  0.4859 -0.7593
 1791ESO     O128482   6.208   1.357   1.359 -1.0240 -0.3811 -0.0636
 1791ESO     O128483   5.986   1.330   1.433 -0.3792 -0.3997  0.2423
 1791ESO      S28484   6.116   1.392   1.460  0.2246 -0.3735  0.1698
 1791ESO     O228485   6.090   1.548   1.453  0.0636 -0.4126  0.6803
 1791ESO    C1a28486   5.982   1.597   1.541 -0.5122  0.2480  0.0532
 1791ESO    H1a28487   5.918   1.518   1.579  1.5823 -1.2467  3.5230
 1791ESO    H1a28488   6.027   1.641   1.629 -0.4786  0.4426 -0.7278
 1791ESO    C2a28489   5.911   1.702   1.462  0.2518 -0.3115  0.5615
 1791ESO    H2a28490   5.845   1.649   1.393 -1.1139  1.2050 -1.6536
 1791ESO    H2a28491   5.981   1.770   1.407 -0.6971  0.2460  0.6426
 1791ESO    H2a28492   5.849   1.763   1.524  2.4812  0.5251  0.2884
 1792ESO     O128493   5.015   2.127   4.526  0.6440  0.0015  0.0689
 1792ESO     O128494   5.024   2.030   4.302  0.4039 -0.0576 -0.4448
 1792ESO     O128495   4.946   2.255   4.343 -0.6091 -0.1060 -0.3026
 1792ESO      S28496   5.034   2.153   4.386  0.0974  0.3555 -0.3960
 1792ESO     O228497   5.171   2.211   4.370  0.5544 -0.2945  0.4312
 1792ESO    C1a28498   5.287   2.129   4.415 -0.8302  0.2070  0.3040
 1792ESO    H1a28499   5.252   2.029   4.456 -0.4789  0.7375  1.0260
 1792ESO    H1a28500   5.358   2.109   4.333  0.7854  1.9604  0.4340
 1792ESO    C2a28501   5.347   2.197   4.537 -0.5498  0.0329 -0.0144
 1792ESO    H2a28502   5.448   2.161   4.547 -0.6241  2.1042 -1.9020
 1792ESO    H2a28503   5.305   2.163   4.629  0.1013 -1.0117  1.3933
 1792ESO    H2a28504   5.351   2.305   4.543  0.5600  1.6631  0.1972
 1793ESO     O128505   0.320   3.986   3.204  0.3656  0.1743 -0.0033
 1793ESO     O128506   0.095   4.015   3.128 -0.0235 -0.0134  0.1662
 1793ESO     O128507   0.211   3.814   3.078  0.2782  0.4409  0.5045
 1793ESO      S28508   0.197   3.926   3.171  0.2329  0.1559  0.2281
 1793ESO     O228509   0.148   3.857   3.302 -0.8896 -0.3330  0.1157
 1793ESO    C1a28510   0.147   3.931   3.428  0.5214 -0.0554 -0.4113
 1793ESO    H1a28511   0.222   4.010   3.435 -0.1043 -0.7083 -2.4258
 1793ESO    H1a28512   0.056   3.984   3.442  1.7088  0.3872  1.9328
 1793ESO    C2a28513   0.176   3.830   3.537 -0.0932 -0.0344 -0.1126
 1793ESO    H2a28514   0.097   3.764   3.563 -2.0417 -3.1848  0.4704
 1793ESO    H2a28515   0.207   3.883   3.627 -1.8076 -0.5991 -0.5271
 1793ESO    H2a28516   0.271   3.771   3.518  1.0165  1.9759 -1.5168
 1794ESO     O128517   5.410   6.564   2.335  0.1556  0.0265  0.1391
 1794ESO     O128518   5.373   6.703   2.142  0.2018 -0.8672 -0.0532
 1794ESO     O128519   5.299   6.477   2.143 -0.2746  0.1897 -1.0060
 1794ESO      S28520   5.324   6.594   2.224  0.2729  0.0357 -0.0055
 1794ESO     O228521   5.190   6.643   2.282 -0.1369 -0.1158 -0.1460
 1794ESO    C1a28522   5.104   6.552   2.359 -0.0709  0.5625  0.7714
 1794ESO    H1a28523   5.118   6.447   2.336  0.3640 -2.9505 -1.9426
 1794ESO    H1a28524   5.141   6.560   2.461  0.0905 -1.3587 -2.9344
 1794ESO    C2a28525   4.959   6.593   2.338 -0.1126 -0.4291  0.6155
 1794ESO    H2a28526   4.889   6.530   2.390 -1.3139 -0.5125 -1.6378
 1794ESO    H2a28527   4.936   6.589   2.234  1.0057 -0.0121 -0.0714
 1794ESO    H2a28528   4.938   6.694   2.375 -0.8708  1.4810  3.5253
 1795ESO     O128529   6.563   0.263   5.943  0.0962 -0.3597  0.4491
 1795ESO     O128530   6.714   0.453   5.958  0.3491 -0.1352 -0.4539
 1795ESO     O128531   6.800   0.224   5.966 -0.1783  0.2333  0.5309
 1795ESO      S28532   6.697   0.318   5.920  0.2956  0.2549 -0.1442
 1795ESO     O228533   6.722   0.311   5.760  0.3170  0.3159 -0.0283
 1795ESO    C1a28534   6.795   0.209   5.692 -0.5144  0.6584 -0.4242
 1795ESO    H1a28535   6.895   0.189   5.738  1.0389 -0.1533 -0.6149
 1795ESO    H1a28536   6.732   0.118   5.708 -1.1094  1.2957  0.5594
 1795ESO    C2a28537   6.780   0.246   5.544  0.3962 -0.0733  0.3846
 1795ESO    H2a28538   6.838   0.328   5.512 -1.0651  1.6043  1.1918
 1795ESO    H2a28539   6.676   0.269   5.525 -0.6296 -0.2321  0.9590
 1795ESO    H2a28540   6.804   0.161   5.487  0.1082  1.2730  0.4566
 1796ESO     O128541   3.534   0.035   0.747 -0.3530  0.2992  0.2459
 1796ESO     O128542   3.423   0.244   0.707  0.5013 -0.1587 -0.8640
 1796ESO     O128543   3.298   0.046   0.685  0.1301 -0.4112 -0.2375
 1796ESO      S28544   3.411   0.110   0.754  0.2251  0.1929 -0.5523
 1796ESO     O228545   3.370   0.130   0.908  0.0108  0.1527  0.3393
 1796ESO    C1a28546   3.413   0.027   1.004 -0.2494  0.0327 -0.1155
 1796ESO    H1a28547   3.326  -0.023   1.037 -0.0171  1.6170 -0.0698
 1796ESO    H1a28548   3.485  -0.049   0.968 -1.8132  0.3365  1.0053
 1796ESO    C2a28549   3.470   0.110   1.123  0.1471  0.3958  0.3878
 1796ESO    H2a28550   3.500   0.046   1.213 -2.1497 -1.3964 -1.8800
 1796ESO    H2a28551   3.410   0.194   1.150  1.2082 -1.9957 -1.1927
 1796ESO    H2a28552   3.558   0.145   1.073  0.3624 -0.8907 -1.8934
 1797ESO     O128553   5.838   3.334   1.591  0.5657  0.9247  0.5450
 1797ESO     O128554   5.936   3.188   1.746  0.4508 -0.5669  0.0117
 1797ESO     O128555   6.054   3.244   1.544  0.4109  0.2130 -0.4252
 1797ESO      S28556   5.962   3.287   1.646  0.0852 -0.1240 -0.1663
 1797ESO     O228557   6.040   3.414   1.716  0.1501 -0.0272  0.0455
 1797ESO    C1a28558   6.118   3.509   1.638  0.0122  0.0541  0.6536
 1797ESO    H1a28559   6.220   3.519   1.681  3.0460 -0.1217  0.3866
 1797ESO    H1a28560   6.135   3.466   1.543  2.4816 -1.4038 -0.7440
 1797ESO    C2a28561   6.043   3.640   1.637  0.8588 -0.0811 -0.6729
 1797ESO    H2a28562   6.054   3.689   1.736  0.9003  1.5983  2.0947
 1797ESO    H2a28563   5.936   3.629   1.609  1.3575  1.8904  0.6599
 1797ESO    H2a28564   6.074   3.715   1.563 -0.2447  0.8933 -0.5881
 1798ESO     O128565   3.090   0.586   6.679 -0.5872 -0.3345 -0.1352
 1798ESO     O128566   3.258   0.715   6.573  0.2280 -1.1023  0.3317
 1798ESO     O128567   3.089   0.619   6.437 -0.0525  0.1695 -0.0361
 1798ESO      S28568   3.123   0.669   6.570  0.1343 -0.6710 -0.3394
 1798ESO     O228569   3.024   0.793   6.593  0.4888 -0.4153 -0.1624
 1798ESO    C1a28570   2.888   0.793   6.536  0.4771  0.2678 -0.6712
 1798ESO    H1a28571   2.879   0.703   6.486  0.1823 -2.1747  0.3759
 1798ESO    H1a28572   2.812   0.787   6.614 -0.5230 -1.9557  1.9887
 1798ESO    C2a28573   2.872   0.895   6.424 -0.0158 -0.3338  0.4435
 1798ESO    H2a28574   2.872   0.846   6.328 -1.7776  1.2775  0.5926
 1798ESO    H2a28575   2.948   0.975   6.421  1.1298  0.3401  3.2640
 1798ESO    H2a28576   2.770   0.936   6.419 -1.9366 -0.3901  0.7261
 1799ESO     O128577   5.406   2.284   5.777  0.2182  0.6029  0.1729
 1799ESO     O128578   5.189   2.343   5.706 -0.1060  0.9746 -0.7217
 1799ESO     O128579   5.339   2.517   5.783 -1.2301  0.0161  0.9464
 1799ESO      S28580   5.328   2.384   5.714  0.1492  0.3197  0.1006
 1799ESO     O228581   5.374   2.393   5.566  0.2438 -0.7986  0.3859
 1799ESO    C1a28582   5.332   2.506   5.485 -0.2668  0.3374  0.2956
 1799ESO    H1a28583   5.276   2.576   5.540 -1.1938  0.6829  0.3226
 1799ESO    H1a28584   5.422   2.544   5.436 -1.7147 -0.2752  2.0581
 1799ESO    C2a28585   5.243   2.444   5.378  0.0765 -0.7940  0.0819
 1799ESO    H2a28586   5.194   2.518   5.315 -2.9256  0.3384  0.3788
 1799ESO    H2a28587   5.170   2.388   5.430  0.7541 -2.4551  0.5655
 1799ESO    H2a28588   5.296   2.368   5.320  2.4072 -1.4733  2.3195
 1800ESO     O128589   1.925   4.650   6.751  0.5205 -0.3582  0.8884
 1800ESO     O128590   1.799   4.471   6.828 -0.6760  0.5618 -0.9389
 1800ESO     O128591   1.702   4.595   6.672  0.1653 -0.4078 -0.2547
 1800ESO      S28592   1.826   4.548   6.717  0.5462 -0.1644  0.0159
 1800ESO     O228593   1.877   4.457   6.596  0.0101  0.1025 -0.6494
 1800ESO    C1a28594   1.990   4.362   6.629  0.6782  0.1057  0.3190
 1800ESO    H1a28595   2.010   4.373   6.735  0.2683  0.8115 -0.4619
 1800ESO    H1a28596   1.947   4.266   6.616 -1.2287  0.9374  1.2284
 1800ESO    C2a28597   2.116   4.380   6.543  0.4568 -0.6484  0.2418
 1800ESO    H2a28598   2.109   4.326   6.441  1.3334 -1.2519 -1.3289
 1800ESO    H2a28599   2.206   4.340   6.604  2.2086 -0.3801 -1.6638
 1800ESO    H2a28600   2.119   4.490   6.534  0.2364  0.4637  1.6504
 1801ESO     O128601   0.646   0.320   0.623  0.3055 -0.1755  0.0846
 1801ESO     O128602   0.472   0.154   0.664  0.0127 -0.5071  0.0280
 1801ESO     O128603   0.474   0.277   0.463 -0.2436 -0.3333 -0.4393
 1801ESO      S28604   0.554   0.220   0.567 -0.3474 -0.1843  0.2585
 1801ESO     O228605   0.632   0.109   0.496  0.7717  0.2894 -0.3543
 1801ESO    C1a28606   0.731   0.043   0.581  0.7595  0.6876  1.1288
 1801ESO    H1a28607   0.800   0.117   0.635  1.7889 -0.6792  1.2064
 1801ESO    H1a28608   0.682  -0.021   0.656 -4.1563 -0.2895  1.2653
 1801ESO    C2a28609   0.812  -0.049   0.490  0.0262  0.3659 -0.4847
 1801ESO    H2a28610   0.874  -0.119   0.546  1.0480  0.2589 -1.4939
 1801ESO    H2a28611   0.877   0.020   0.434  0.0992 -0.3933 -2.8213
 1801ESO    H2a28612   0.749  -0.111   0.420  1.6001 -0.2850  1.2828
 1802ESO     O128613   4.229   1.578   3.058 -0.4854 -0.0985  0.2268
 1802ESO     O128614   4.365   1.648   3.248  0.0329  0.5544  0.1695
 1802ESO     O128615   4.340   1.785   3.050 -0.2377 -0.1186  0.1480
 1802ESO      S28616   4.284   1.683   3.136 -0.0769 -0.1910 -0.1060
 1802ESO     O228617   4.153   1.748   3.203  0.3560  0.3775 -0.0350
 1802ESO    C1a28618   4.166   1.868   3.281  0.3050  0.4942 -0.1586
 1802ESO    H1a28619   4.264   1.874   3.317 -0.8752 -1.9745 -0.2063
 1802ESO    H1a28620   4.143   1.948   3.210 -1.5094 -0.9472  1.4231
 1802ESO    C2a28621   4.058   1.871   3.393 -0.1224 -0.2150  0.0419
 1802ESO    H2a28622   4.073   1.782   3.459 -0.3641 -0.7554  0.6298
 1802ESO    H2a28623   3.954   1.873   3.344 -1.5990 -0.9660 -0.6278
 1802ESO    H2a28624   4.077   1.955   3.459  1.8374 -1.2337 -2.1599
 1803ESO     O128625   0.744   2.361   5.485  0.3954 -0.4212  0.2935
 1803ESO     O128626   0.843   2.241   5.296 -0.2610  0.3358  0.2616
 1803ESO     O128627   0.801   2.483   5.284  0.0075  0.0139  0.3314
 1803ESO      S28628   0.832   2.367   5.368 -0.1541  0.0026 -0.0346
 1803ESO     O228629   0.977   2.388   5.420 -0.0136 -0.1527 -0.3867
 1803ESO    C1a28630   0.996   2.485   5.518  0.2534 -0.2204 -0.0758
 1803ESO    H1a28631   0.902   2.540   5.532 -2.7046  0.4300 -0.1092
 1803ESO    H1a28632   1.021   2.433   5.612  0.0767 -1.6513 -1.7910
 1803ESO    C2a28633   1.115   2.565   5.475  0.2303 -0.2051 -0.0740
 1803ESO    H2a28634   1.199   2.501   5.485 -1.3503  1.1817  1.1951
 1803ESO    H2a28635   1.131   2.657   5.528  1.5132  0.1874 -0.6264
 1803ESO    H2a28636   1.107   2.586   5.374  0.7028  0.0505  0.1861
 1804ESO     O128637   4.203   1.449   2.461  0.3011  0.0739 -0.7020
 1804ESO     O128638   4.183   1.246   2.576  0.5785 -0.9028  0.2135
 1804ESO     O128639   4.059   1.427   2.657  0.3139  0.0735 -0.2709
 1804ESO      S28640   4.117   1.364   2.535  0.0099 -0.0861 -0.2517
 1804ESO     O228641   3.995   1.320   2.446 -0.6392 -0.3693  0.0661
 1804ESO    C1a28642   3.938   1.422   2.359 -0.5364 -0.2511 -0.6117
 1804ESO    H1a28643   3.895   1.500   2.420 -2.5207 -0.5784 -1.7689
 1804ESO    H1a28644   4.020   1.459   2.305 -1.3196  2.4552 -0.0944
 1804ESO    C2a28645   3.838   1.360   2.271 -0.2353  0.7956 -0.6809
 1804ESO    H2a28646   3.885   1.295   2.199  0.1058  2.4506  1.4569
 1804ESO    H2a28647   3.777   1.428   2.203 -2.3349 -2.1979 -0.2379
 1804ESO    H2a28648   3.761   1.312   2.328 -1.3588 -0.8288 -0.5160
 1805ESO     O128649   3.624   6.770   0.033 -0.0762 -0.5352 -0.0780
 1805ESO     O128650   3.631   6.688   0.259  0.8535 -0.1537 -0.2643
 1805ESO     O128651   3.699   6.549   0.078 -0.1296  0.4748  0.2288
 1805ESO      S28652   3.686   6.682   0.129  0.2546  0.3885 -0.3684
 1805ESO     O228653   3.835   6.735   0.144  0.4439 -0.6286 -0.4318
 1805ESO    C1a28654   3.918   6.738   0.026  0.3916 -1.0107  0.0035
 1805ESO    H1a28655   4.002   6.681   0.054 -5.7258 -0.5808 -1.1539
 1805ESO    H1a28656   3.875   6.695  -0.057  2.2872 -0.2282  0.4483
 1805ESO    C2a28657   3.955   6.879   0.004 -0.0898  0.1223  0.1526
 1805ESO    H2a28658   4.031   6.923   0.067 -1.6228 -2.6795  1.3906
 1805ESO    H2a28659   3.868   6.945   0.006  2.2412 -0.3683 -1.3785
 1805ESO    H2a28660   3.997   6.884  -0.095 -0.3617  1.1423  0.6225
 1806ESO     O128661   2.392   1.529   6.468 -0.3997 -0.0432 -0.2772
 1806ESO     O128662   2.442   1.350   6.316 -0.0960  0.4282  0.0942
 1806ESO     O128663   2.310   1.536   6.237  0.5595 -1.0531 -0.0434
 1806ESO      S28664   2.410   1.490   6.328 -0.0207  0.2966 -0.0495
 1806ESO     O228665   2.537   1.566   6.278 -0.2691  0.8233 -0.0594
 1806ESO    C1a28666   2.574   1.568   6.127 -0.1190 -0.4322 -0.0148
 1806ESO    H1a28667   2.507   1.495   6.071  1.0397  0.1304  1.7199
 1806ESO    H1a28668   2.556   1.666   6.090 -2.8446 -1.4113  0.1914
 1806ESO    C2a28669   2.723   1.540   6.112  0.4573 -0.4268 -0.5798
 1806ESO    H2a28670   2.771   1.581   6.022 -1.9095 -0.8095  3.5171
 1806ESO    H2a28671   2.757   1.438   6.128 -0.6401  1.8602  1.7467
 1806ESO    H2a28672   2.779   1.593   6.188 -1.9001 -0.1449 -1.8834
 1807ESO     O128673   2.372   0.075   1.265  0.1375  0.2846 -0.0900
 1807ESO     O128674   2.323   0.288   1.365 -0.0151 -0.0518 -0.0946
 1807ESO     O128675   2.160   0.112   1.362 -0.4936 -0.2408 -0.5200
 1807ESO      S28676   2.299   0.146   1.366  0.2095  0.0309  0.4089
 1807ESO     O228677   2.367   0.099   1.506  0.2271  0.0619  0.0609
 1807ESO    C1a28678   2.380  -0.042   1.538 -0.4259 -0.3125 -0.2378
 1807ESO    H1a28679   2.287  -0.100   1.510 -0.6011 -0.1597 -0.7429
 1807ESO    H1a28680   2.461  -0.078   1.480  0.2458 -0.1861  1.9829
 1807ESO    C2a28681   2.412  -0.044   1.687  0.0784  0.1423  0.1829
 1807ESO    H2a28682   2.423  -0.145   1.709 -0.0619  0.0018 -0.3027
 1807ESO    H2a28683   2.329  -0.014   1.742  2.0676  0.0771 -1.7133
 1807ESO    H2a28684   2.504   0.001   1.714  1.8500 -2.0484  2.7272
 1808ESO     O128685   3.868   4.086   4.879 -0.4715 -0.7193 -0.3723
 1808ESO     O128686   4.056   4.127   4.734 -0.2531  0.0208 -0.0703
 1808ESO     O128687   3.833   4.195   4.673 -1.0465  0.5543 -0.5358
 1808ESO      S28688   3.929   4.171   4.779  0.3843  0.2069  0.2117
 1808ESO     O228689   3.937   4.314   4.846 -0.5398  0.5873 -0.6799
 1808ESO    C1a28690   3.992   4.339   4.981  0.2673  0.4109  0.7655
 1808ESO    H1a28691   3.930   4.273   5.045  1.1437  0.2575 -2.4974
 1808ESO    H1a28692   4.091   4.307   4.999  0.0463  0.0049 -1.3550
 1808ESO    C2a28693   3.975   4.483   5.016 -0.6697  0.1567 -0.6863
 1808ESO    H2a28694   4.063   4.541   4.996 -3.0321  0.7937  2.4822
 1808ESO    H2a28695   3.959   4.485   5.125  0.7577  2.1527 -3.0956
 1808ESO    H2a28696   3.890   4.538   4.975 -1.5932 -1.8209 -0.2042
 1809ESO     O128697   6.213   2.408   0.310 -0.2829 -0.5988  0.3832
 1809ESO     O128698   6.113   2.428   0.086  0.2446  0.3561 -0.8047
 1809ESO     O128699   6.059   2.248   0.232 -0.6569  0.0286  0.4924
 1809ESO      S28700   6.096   2.385   0.221 -0.0779  0.0818 -0.5883
 1809ESO     O228701   5.974   2.480   0.279  0.0931 -0.2413  0.0836
 1809ESO    C1a28702   5.968   2.516   0.417 -0.7063  0.8226 -0.4967
 1809ESO    H1a28703   5.944   2.432   0.485 -0.6398 -2.2330  0.9348
 1809ESO    H1a28704   6.067   2.558   0.447 -0.6149  0.5212 -0.1815
 1809ESO    C2a28705   5.851   2.608   0.433 -0.5174  0.0948 -0.6425
 1809ESO    H2a28706   5.843   2.695   0.366  1.7762  0.0191 -0.1494
 1809ESO    H2a28707   5.844   2.642   0.532 -2.2973 -0.6144  2.2716
 1809ESO    H2a28708   5.764   2.546   0.406 -2.7782 -1.5569 -3.5690
 1810ESO     O128709   5.546   3.735   2.393 -0.6729 -0.1727 -0.8408
 1810ESO     O128710   5.450   3.865   2.215 -0.4804 -0.1970  0.5748
 1810ESO     O128711   5.343   3.672   2.288 -0.0059  0.6441 -0.2903
 1810ESO      S28712   5.429   3.779   2.326 -0.1445 -0.2410  0.3018
 1810ESO     O228713   5.345   3.864   2.429 -0.1601 -0.3001  0.2724
 1810ESO    C1a28714   5.202   3.855   2.449 -0.3560 -0.5552 -0.2896
 1810ESO    H1a28715   5.154   3.955   2.472 -3.2448 -0.4263 -1.2043
 1810ESO    H1a28716   5.154   3.817   2.362 -1.8233 -0.0525 -0.5165
 1810ESO    C2a28717   5.195   3.779   2.578 -0.2092  0.5380 -0.0139
 1810ESO    H2a28718   5.231   3.670   2.564  0.8730  0.9564  0.5324
 1810ESO    H2a28719   5.092   3.777   2.614 -2.6413 -0.3988 -1.3693
 1810ESO    H2a28720   5.261   3.832   2.649 -1.0423 -0.0651 -3.0982
 1811ESO     O128721   0.324   6.439   5.933 -0.2444 -0.3444 -0.0349
 1811ESO     O128722   0.211   6.532   6.122  0.0041  0.1794  0.4482
 1811ESO     O128723   0.205   6.296   6.075  0.5119  0.6053  0.4048
 1811ESO      S28724   0.277   6.415   6.063  0.0704  0.3178  0.0395
 1811ESO     O228725   0.404   6.408   6.157  0.3986 -0.1688 -0.2709
 1811ESO    C1a28726   0.501   6.300   6.136  0.0310  0.1942  0.4223
 1811ESO    H1a28727   0.522   6.254   6.233  0.4817  0.5208  0.7613
 1811ESO    H1a28728   0.471   6.232   6.063  1.1305 -0.6821  1.5384
 1811ESO    C2a28729   0.639   6.358   6.091  0.1409  0.1180  0.1479
 1811ESO    H2a28730   0.699   6.277   6.048 -2.0003 -1.4722  1.6919
 1811ESO    H2a28731   0.695   6.397   6.173 -1.5315 -0.8373  0.0062
 1811ESO    H2a28732   0.633   6.438   6.012 -3.6557  0.1616  1.6900
 1812ESO     O128733   2.880   3.136   4.559 -0.2481  0.0218  0.6746
 1812ESO     O128734   2.834   2.941   4.683  0.1747 -0.7988 -0.2022
 1812ESO     O128735   2.874   3.146   4.805  0.0115  0.0291  1.0560
 1812ESO      S28736   2.822   3.084   4.683 -0.0566 -0.0545 -0.0438
 1812ESO     O228737   2.665   3.117   4.681 -0.4137 -0.6227  0.0621
 1812ESO    C1a28738   2.571   3.046   4.595  0.1215  0.1728  0.3260
 1812ESO    H1a28739   2.624   3.016   4.503  1.2918 -1.6481  0.0294
 1812ESO    H1a28740   2.536   2.966   4.650  0.4789 -0.6816  0.4774
 1812ESO    C2a28741   2.473   3.153   4.560  0.5979  0.2250 -0.4807
 1812ESO    H2a28742   2.448   3.203   4.656 -0.9500 -0.6744 -2.8155
 1812ESO    H2a28743   2.382   3.107   4.510  1.3242 -1.7538 -0.1392
 1812ESO    H2a28744   2.516   3.217   4.488  2.2153  0.6375  2.5459
 1813ESO     O128745   2.688   0.559   4.787 -0.6387  0.3864  0.5407
 1813ESO     O128746   2.788   0.672   4.968 -0.7089 -0.0116 -0.0378
 1813ESO     O128747   2.617   0.774   4.840  0.0419 -0.3624 -0.0241
 1813ESO      S28748   2.671   0.658   4.893 -0.0679 -0.0958 -0.4322
 1813ESO     O228749   2.561   0.591   4.984  0.8544 -0.0672  0.1134
 1813ESO    C1a28750   2.421   0.605   4.946  0.1898  0.0183 -0.7028
 1813ESO    H1a28751   2.380   0.696   4.994  1.3584 -0.9965  0.5853
 1813ESO    H1a28752   2.413   0.612   4.838  1.1335  0.9420  0.3282
 1813ESO    C2a28753   2.362   0.478   4.994 -0.6910 -0.4613 -0.1726
 1813ESO    H2a28754   2.441   0.404   4.982 -2.6099  0.4513  0.6971
 1813ESO    H2a28755   2.270   0.448   4.940  0.9110 -1.3275  2.2224
 1813ESO    H2a28756   2.326   0.488   5.098  1.5061 -1.2190  0.0481
 1814ESO     O128757   2.692   4.740   4.869 -0.0344  0.3051  0.1108
 1814ESO     O128758   2.594   4.957   4.846 -0.2251  0.6560  0.4106
 1814ESO     O128759   2.649   4.832   4.657 -0.5265 -0.6882 -0.2330
 1814ESO      S28760   2.614   4.829   4.793 -0.3384 -0.0459  0.4085
 1814ESO     O228761   2.465   4.766   4.791  0.6655  0.0777 -0.1752
 1814ESO    C1a28762   2.395   4.754   4.919  0.2053 -0.4771  0.1598
 1814ESO    H1a28763   2.456   4.693   4.987 -2.7843  0.1703 -0.7831
 1814ESO    H1a28764   2.381   4.857   4.960 -0.7538 -0.3989 -0.3204
 1814ESO    C2a28765   2.255   4.687   4.904  0.8070 -0.6593 -0.5257
 1814ESO    H2a28766   2.243   4.603   4.966 -0.1156 -0.0251 -2.5824
 1814ESO    H2a28767   2.239   4.656   4.801  0.6364 -2.5215  1.0073
 1814ESO    H2a28768   2.177   4.758   4.935 -1.9770  0.0526 -3.8946
 1815ESO     O128769   6.247   0.443   4.433  0.0053  0.3646 -0.2541
 1815ESO     O128770   6.351   0.617   4.313  0.4289  0.3088  0.3134
 1815ESO     O128771   6.443   0.548   4.523  0.0800  0.1892  1.1051
 1815ESO      S28772   6.368   0.509   4.403 -0.0924 -0.4017 -0.3941
 1815ESO     O228773   6.460   0.410   4.320 -0.4613  0.1809  0.1182
 1815ESO    C1a28774   6.467   0.270   4.370 -0.1433 -0.4626 -0.6366
 1815ESO    H1a28775   6.465   0.270   4.480  1.8599 -0.6323 -0.3930
 1815ESO    H1a28776   6.382   0.222   4.323 -1.0765 -2.2125 -1.0289
 1815ESO    C2a28777   6.588   0.203   4.314 -0.3382 -1.0933  0.1665
 1815ESO    H2a28778   6.669   0.230   4.378 -1.9404  0.6251  2.3297
 1815ESO    H2a28779   6.611   0.244   4.213  0.0045 -0.8272  1.0987
 1815ESO    H2a28780   6.575   0.099   4.320 -0.2090  1.9769  1.3269
 1816ESO     O128781   0.177   2.527   1.282  0.2214 -0.6176  0.1098
 1816ESO     O128782   0.227   2.466   1.512 -0.0636 -0.0123  0.0424
 1816ESO     O128783  -0.008   2.466   1.430 -0.4161 -0.5597  0.2352
 1816ESO      S28784   0.132   2.457   1.401 -0.1675 -0.2069  0.0546
 1816ESO     O228785   0.147   2.307   1.358  0.2128  0.0735  0.1790
 1816ESO    C1a28786   0.105   2.207   1.460 -0.3102  0.2705 -0.0530
 1816ESO    H1a28787   0.191   2.164   1.510  1.4599  1.7081  0.0826
 1816ESO    H1a28788   0.023   2.244   1.518  1.8726  1.3492  3.1674
 1816ESO    C2a28789   0.049   2.095   1.379  0.2622  0.5085  0.1542
 1816ESO    H2a28790   0.124   2.059   1.307  0.0246  0.9977 -0.5468
 1816ESO    H2a28791  -0.036   2.124   1.313  1.2824  0.8810  3.9382
 1816ESO    H2a28792   0.029   2.004   1.434  1.1187 -1.1834 -1.3461
 1817ESO     O128793   3.854   3.984   2.555 -0.3477 -0.3906  0.7222
 1817ESO     O128794   3.639   4.057   2.618 -0.1149  0.2944 -0.1132
 1817ESO     O128795   3.710   3.842   2.680 -0.4569  0.1402 -0.1863
 1817ESO      S28796   3.751   3.977   2.652 -0.2849  0.0362  0.2714
 1817ESO     O228797   3.818   4.015   2.792  0.5882  0.0908  0.1935
 1817ESO    C1a28798   3.742   4.080   2.906 -0.1727  1.0368 -0.1214
 1817ESO    H1a28799   3.689   4.173   2.879 -1.7416  2.1802 -1.5383
 1817ESO    H1a28800   3.678   4.007   2.955 -0.4613  0.5727 -3.2297
 1817ESO    C2a28801   3.851   4.125   2.996 -0.3228  0.1511 -0.4580
 1817ESO    H2a28802   3.912   4.035   3.012 -0.3637  4.5636 -0.8815
 1817ESO    H2a28803   3.813   4.161   3.090  1.0857  1.2294 -1.1209
 1817ESO    H2a28804   3.912   4.199   2.945  0.9235  3.1089 -3.1744
 1818ESO     O128805   2.607   6.807   5.385  0.3057 -0.0570 -0.0358
 1818ESO     O128806   2.697   6.910   5.192  0.4017  0.2235  0.5197
 1818ESO     O128807   2.466   6.875   5.203 -0.0971  0.0664  0.2497
 1818ESO      S28808   2.582   6.902   5.281  0.1611 -0.3037  0.0156
 1818ESO     O228809   2.562   7.049   5.343 -0.3053  0.1361  0.4704
 1818ESO    C1a28810   2.540   7.163   5.251 -0.2357 -0.1419 -0.7696
 1818ESO    H1a28811   2.620   7.169   5.183 -1.5649 -0.5204  4.5391
 1818ESO    H1a28812   2.446   7.150   5.209 -1.5928  0.4676  2.2008
 1818ESO    C2a28813   2.523   7.287   5.343  0.0620 -0.1366  0.5653
 1818ESO    H2a28814   2.453   7.270   5.425 -0.4828  2.4416  0.1194
 1818ESO    H2a28815   2.495   7.374   5.282  0.9861 -1.9103  0.0536
 1818ESO    H2a28816   2.617   7.302   5.396  4.3771  3.3808 -0.5938
 1819ESO     O128817   0.063   2.141   0.436  0.4247  0.0890  0.0379
 1819ESO     O128818  -0.038   1.926   0.445 -0.7785  0.2554  0.0576
 1819ESO     O128819   0.067   2.027   0.636  0.5678  0.1289 -0.6419
 1819ESO      S28820  -0.005   2.045   0.518 -0.3245  0.2571 -0.1431
 1819ESO     O228821  -0.147   2.108   0.550 -0.0688  0.1467  0.0925
 1819ESO    C1a28822  -0.236   2.016   0.621  0.2228  0.4543 -0.3478
 1819ESO    H1a28823  -0.297   1.950   0.554 -1.8428 -0.6055  0.3067
 1819ESO    H1a28824  -0.177   1.955   0.690  1.6547  1.2504  0.6168
 1819ESO    C2a28825  -0.335   2.103   0.699  0.0022  0.0589 -0.2674
 1819ESO    H2a28826  -0.290   2.156   0.782  0.6033 -1.0527  3.1222
 1819ESO    H2a28827  -0.411   2.049   0.745  1.6550  0.7553  0.6879
 1819ESO    H2a28828  -0.387   2.184   0.631 -0.1556  0.2085  2.2263
 1820ESO     O128829   1.514   1.240   1.033 -0.5406 -0.4182  0.2018
 1820ESO     O128830   1.601   1.459   1.083  0.1235  0.4352  0.6917
 1820ESO     O128831   1.392   1.399   1.160  0.0987 -0.8736  0.2784
 1820ESO      S28832   1.520   1.352   1.124  0.1002 -0.4540 -0.5213
 1820ESO     O228833   1.597   1.300   1.258  0.3346  0.4206 -0.7443
 1820ESO    C1a28834   1.542   1.206   1.344  0.0460  0.4280 -0.0643
 1820ESO    H1a28835   1.478   1.250   1.419 -0.8567 -0.2025 -2.3514
 1820ESO    H1a28836   1.485   1.126   1.291 -0.1322 -2.5916 -0.2960
 1820ESO    C2a28837   1.655   1.146   1.417 -0.9684  0.4638 -0.0764
 1820ESO    H2a28838   1.697   1.226   1.472 -0.3049 -0.6278 -1.1756
 1820ESO    H2a28839   1.719   1.094   1.350 -0.7262  1.5152 -1.6597
 1820ESO    H2a28840   1.616   1.070   1.481 -0.6427  0.7252  2.3532
 1821ESO     O128841   3.162   1.309   4.914 -0.5589 -0.2308 -0.2128
 1821ESO     O128842   3.237   1.532   4.884  0.3017  0.2245 -0.7474
 1821ESO     O128843   3.157   1.473   5.095 -0.0712  0.2677  0.5409
 1821ESO      S28844   3.224   1.424   4.972  0.3390 -0.3407  0.4893
 1821ESO     O228845   3.373   1.382   5.024  0.6691 -0.2311  0.1175
 1821ESO    C1a28846   3.451   1.296   4.939 -0.0052 -0.4340 -0.4708
 1821ESO    H1a28847   3.387   1.212   4.908 -1.8343 -0.5039  1.2131
 1821ESO    H1a28848   3.474   1.347   4.852  0.6861  0.8800  0.6326
 1821ESO    C2a28849   3.578   1.259   5.008 -1.3420  0.6057 -0.5410
 1821ESO    H2a28850   3.664   1.332   5.001  0.4862  3.1492  0.0751
 1821ESO    H2a28851   3.612   1.164   4.970  1.8120  0.2628  1.5389
 1821ESO    H2a28852   3.545   1.244   5.105 -1.3474 -0.6670 -1.1750
 1822ESO     O128853   2.230   5.758   2.099 -0.1719  0.2413  0.5921
 1822ESO     O128854   2.451   5.763   2.187 -0.0521  0.1557 -0.0755
 1822ESO     O128855   2.323   5.960   2.173  0.3483 -0.1578 -0.0746
 1822ESO      S28856   2.318   5.821   2.194 -0.4294 -0.2094  0.0886
 1822ESO     O228857   2.247   5.790   2.328  0.2680  0.4208 -0.3145
 1822ESO    C1a28858   2.313   5.834   2.449 -0.5779 -0.4397  0.9804
 1822ESO    H1a28859   2.392   5.899   2.428  0.1321  1.6632 -0.3070
 1822ESO    H1a28860   2.247   5.878   2.530  3.5302  3.2087  1.9118
 1822ESO    C2a28861   2.371   5.709   2.493 -0.1941  0.3137  0.2248
 1822ESO    H2a28862   2.307   5.628   2.518  1.1733 -0.2540 -1.1550
 1822ESO    H2a28863   2.435   5.721   2.590  0.9758  0.5930  1.8274
 1822ESO    H2a28864   2.439   5.666   2.418  3.8907  1.5537  3.9875
 1823ESO     O128865   3.693   0.714   5.831  0.1738 -0.1832 -0.4553
 1823ESO     O128866   3.726   0.622   6.048  0.9179  0.1281 -0.1821
 1823ESO     O128867   3.650   0.479   5.867 -0.6293 -0.0067  0.3005
 1823ESO      S28868   3.726   0.596   5.906  0.3643 -0.5075 -0.3359
 1823ESO     O228869   3.866   0.563   5.861 -0.4459  0.9270 -0.1930
 1823ESO    C1a28870   3.954   0.460   5.917  0.2824 -0.2742  0.9457
 1823ESO    H1a28871   3.981   0.484   6.017 -2.1512  0.8586  0.9803
 1823ESO    H1a28872   3.903   0.367   5.912 -1.2552 -1.3709  0.6265
 1823ESO    C2a28873   4.076   0.449   5.831 -0.8147  0.4564 -0.5108
 1823ESO    H2a28874   4.121   0.550   5.840  0.5391  1.3025 -1.3707
 1823ESO    H2a28875   4.055   0.435   5.725  1.2012 -1.7089  1.7808
 1823ESO    H2a28876   4.146   0.373   5.875  1.7434 -2.7408  0.7074
 1824ESO     O128877   3.547   1.763   1.280 -0.3547  0.1352 -0.1597
 1824ESO     O128878   3.525   1.824   1.512 -0.0620 -0.0137  0.0492
 1824ESO     O128879   3.664   1.961   1.371 -0.6309  0.5209 -0.2526
 1824ESO      S28880   3.551   1.866   1.377  0.1908 -0.2879 -0.4465
 1824ESO     O228881   3.423   1.954   1.352 -0.1707  0.1205  0.5769
 1824ESO    C1a28882   3.392   2.009   1.226  0.6493  0.0177 -0.0731
 1824ESO    H1a28883   3.481   2.047   1.180 -0.1752 -2.6184 -0.0319
 1824ESO    H1a28884   3.347   1.934   1.165  0.7534  1.6769  1.8460
 1824ESO    C2a28885   3.293   2.129   1.239 -0.0332 -0.3894  0.1582
 1824ESO    H2a28886   3.344   2.216   1.288 -0.3473 -1.5687  0.5445
 1824ESO    H2a28887   3.211   2.114   1.306  0.9123 -1.2316 -3.8653
 1824ESO    H2a28888   3.261   2.168   1.143  1.2284 -1.6019  0.7186
 1825ESO     O128889   0.838   4.637   4.097  0.4473  0.0891 -0.0610
 1825ESO     O128890   0.656   4.688   4.234 -0.2436 -0.2357  0.1311
 1825ESO     O128891   0.822   4.530   4.308 -0.1506  0.1264  0.6353
 1825ESO      S28892   0.792   4.648   4.231 -0.4839 -0.3514  0.0948
 1825ESO     O228893   0.875   4.768   4.295  0.4765 -0.1887 -0.0753
 1825ESO    C1a28894   0.884   4.763   4.440  0.2682 -0.4932 -0.4071
 1825ESO    H1a28895   0.785   4.721   4.474 -1.2183 -1.5413 -0.3739
 1825ESO    H1a28896   0.954   4.689   4.478 -1.0121  0.3528 -0.8678
 1825ESO    C2a28897   0.904   4.906   4.487 -0.4567  0.0483  0.6778
 1825ESO    H2a28898   0.808   4.957   4.466 -1.2842  1.1098 -0.9463
 1825ESO    H2a28899   0.987   4.939   4.416 -2.9017  0.4297 -1.0343
 1825ESO    H2a28900   0.943   4.914   4.587 -0.1336  0.2912  1.6428
 1826ESO     O128901   0.203   2.853   6.438  0.0589  0.0131 -0.0165
 1826ESO     O128902   0.162   2.672   6.287 -0.0531  0.2217 -0.1893
 1826ESO     O128903   0.096   2.656   6.520 -0.5029  0.1571  0.1288
 1826ESO      S28904   0.116   2.740   6.405  0.0158 -0.2369 -0.3198
 1826ESO     O228905  -0.027   2.792   6.356  0.0791 -0.3101  0.2736
 1826ESO    C1a28906  -0.146   2.738   6.414  0.6269 -0.2233 -0.0257
 1826ESO    H1a28907  -0.133   2.639   6.452  0.4638  0.0504  1.1279
 1826ESO    H1a28908  -0.176   2.797   6.498 -0.6701 -0.6160  0.0024
 1826ESO    C2a28909  -0.257   2.757   6.314 -0.1614  0.2443 -0.8061
 1826ESO    H2a28910  -0.237   2.689   6.235  2.0590 -0.8000  2.9981
 1826ESO    H2a28911  -0.261   2.855   6.279 -0.3547 -3.5800 -2.2569
 1826ESO    H2a28912  -0.354   2.729   6.348 -2.6841  3.1850  0.6114
 1827ESO     O128913   4.530   6.757   4.668  0.5907  0.7479 -0.4871
 1827ESO     O128914   4.475   6.532   4.739 -0.4311 -0.4555  0.2999
 1827ESO     O128915   4.663   6.571   4.587  0.6233 -0.4225  0.5156
 1827ESO      S28916   4.580   6.624   4.695  0.4445  0.0873 -0.2899
 1827ESO     O228917   4.677   6.648   4.817  0.4794  0.5821 -0.0308
 1827ESO    C1a28918   4.684   6.557   4.920 -0.2238  0.6179 -0.3250
 1827ESO    H1a28919   4.630   6.468   4.894 -0.1307  2.4819 -0.2823
 1827ESO    H1a28920   4.781   6.513   4.938 -0.8122 -0.3931 -1.1153
 1827ESO    C2a28921   4.622   6.627   5.041  0.4612  0.0150 -0.8975
 1827ESO    H2a28922   4.515   6.608   5.046  1.0837  0.3164  0.2947
 1827ESO    H2a28923   4.641   6.733   5.045 -0.3013  2.6731 -1.7760
 1827ESO    H2a28924   4.667   6.591   5.128  1.3690  0.3097 -3.5347
 1828ESO     O128925   6.308   0.708   5.478 -0.3460  0.2545 -0.3836
 1828ESO     O128926   6.310   0.805   5.262  1.2332  0.0255  0.2736
 1828ESO     O128927   6.125   0.827   5.420 -0.2276  0.2110 -0.3921
 1828ESO      S28928   6.263   0.814   5.403  0.3125 -0.0738 -0.1000
 1828ESO     O228929   6.333   0.944   5.464  0.5665  0.2616  0.5359
 1828ESO    C1a28930   6.284   1.075   5.420  0.0464  0.2866 -0.4542
 1828ESO    H1a28931   6.195   1.054   5.354 -0.2414  0.0880 -2.1914
 1828ESO    H1a28932   6.243   1.136   5.504 -1.3717 -0.9271 -0.6688
 1828ESO    C2a28933   6.387   1.139   5.330  0.3471  0.1488 -0.5414
 1828ESO    H2a28934   6.457   1.190   5.393  0.2325 -2.8507  0.2211
 1828ESO    H2a28935   6.349   1.207   5.254 -1.8022 -0.6654 -2.1524
 1828ESO    H2a28936   6.444   1.058   5.279 -2.6545  0.7775  0.1457
 1829ESO     O128937   0.493   2.363   0.785 -0.2854 -0.0336  0.1761
 1829ESO     O128938   0.456   2.549   0.637 -0.4647  0.3699  0.2430
 1829ESO     O128939   0.630   2.391   0.586  0.5664 -0.7134  0.2125
 1829ESO      S28940   0.500   2.413   0.649 -0.0357 -0.0303 -0.2729
 1829ESO     O228941   0.388   2.320   0.571  0.2345 -0.1932  0.1225
 1829ESO    C1a28942   0.380   2.345   0.429  0.1435  0.8991 -0.2329
 1829ESO    H1a28943   0.467   2.391   0.397  1.0203 -1.0854 -0.7534
 1829ESO    H1a28944   0.362   2.251   0.381  0.6877  1.4229 -0.9502
 1829ESO    C2a28945   0.253   2.424   0.408  0.1721 -0.4943 -0.8305
 1829ESO    H2a28946   0.253   2.527   0.441  0.9299 -0.4573  0.3904
 1829ESO    H2a28947   0.165   2.375   0.459 -1.7069  2.3743 -1.3591
 1829ESO    H2a28948   0.226   2.442   0.303 -0.4046 -1.3788  0.0461
 1830ESO     O128949   6.517   2.054   1.054  0.9125  0.1721 -0.4967
 1830ESO     O128950   6.738   1.985   0.996  0.0207 -0.5190  0.3118
 1830ESO     O128951   6.614   1.870   1.169 -0.5424  0.0160  0.1210
 1830ESO      S28952   6.612   1.944   1.046  0.1407  0.1489  0.3019
 1830ESO     O228953   6.546   1.844   0.947  0.3023  0.0877  0.3348
 1830ESO    C1a28954   6.636   1.736   0.903  0.2856  0.4697 -0.8076
 1830ESO    H1a28955   6.715   1.785   0.842  1.6485 -1.5142 -1.1051
 1830ESO    H1a28956   6.673   1.690   0.994  1.3986  0.5565  0.1168
 1830ESO    C2a28957   6.555   1.637   0.818 -0.2566  0.0125 -0.2401
 1830ESO    H2a28958   6.618   1.570   0.756  0.0559  1.1736 -2.0290
 1830ESO    H2a28959   6.514   1.695   0.734 -1.7561  2.1891  0.8977
 1830ESO    H2a28960   6.477   1.580   0.873 -0.5317 -2.0696  0.4128
 1831ESO     O128961   2.186   5.437   1.482  0.0211 -0.4163  0.0242
 1831ESO     O128962   2.210   5.509   1.252 -0.2183 -0.4947 -0.1724
 1831ESO     O128963   2.060   5.330   1.304 -0.0426  0.3043 -0.6615
 1831ESO      S28964   2.120   5.452   1.352  0.3746  0.0962 -0.0704
 1831ESO     O228965   2.012   5.563   1.374  0.3146  0.0186  0.0526
 1831ESO    C1a28966   1.879   5.533   1.422  0.3633  0.5868  0.3608
 1831ESO    H1a28967   1.814   5.521   1.339 -0.2574  0.3127 -0.2942
 1831ESO    H1a28968   1.884   5.444   1.489  2.3753 -1.5699 -0.4276
 1831ESO    C2a28969   1.846   5.666   1.481  0.2739  0.0669  0.0996
 1831ESO    H2a28970   1.851   5.744   1.414 -1.2764 -2.1266  0.2280
 1831ESO    H2a28971   1.909   5.689   1.569 -0.9634  0.4607 -1.7492
 1831ESO    H2a28972   1.744   5.671   1.508 -0.5016  5.1314  0.1444
 1832ESO     O128973   6.109   3.509   5.963 -0.0757 -0.8385 -1.2312
 1832ESO     O128974   6.001   3.464   6.175 -0.5418  0.5975 -0.5017
 1832ESO     O128975   5.960   3.672   6.058  0.6700  0.4591 -0.2917
 1832ESO      S28976   5.993   3.530   6.047  0.4251 -0.0326 -0.1601
 1832ESO     O228977   5.874   3.461   5.976  0.3681  0.8310  0.2828
 1832ESO    C1a28978   5.738   3.473   6.015  0.3792 -0.5324 -0.1994
 1832ESO    H1a28979   5.723   3.547   6.086 -2.5929 -0.1961 -2.9121
 1832ESO    H1a28980   5.676   3.492   5.928  4.7367  0.0260 -1.4632
 1832ESO    C2a28981   5.689   3.340   6.075  0.9424 -0.2725  0.5113
 1832ESO    H2a28982   5.700   3.259   5.999 -3.5360  0.3179  2.5400
 1832ESO    H2a28983   5.584   3.353   6.104 -2.1499 -3.1296 -1.1916
 1832ESO    H2a28984   5.747   3.305   6.163 -1.7567 -1.0468  1.8055
 1833ESO     O128985   0.018   2.897   1.002 -0.4898 -0.1609  0.5641
 1833ESO     O128986   0.174   3.013   1.134 -0.4603 -0.7786  0.3075
 1833ESO     O128987   0.220   2.794   1.064 -0.1704  0.4434  0.2076
 1833ESO      S28988   0.156   2.919   1.030 -0.0360 -0.0205 -0.1099
 1833ESO     O228989   0.219   2.976   0.903  0.7015 -0.3050  0.0851
 1833ESO    C1a28990   0.160   3.099   0.850  0.8428  0.1242  0.0406
 1833ESO    H1a28991   0.066   3.081   0.805 -0.0433  1.2011 -0.2817
 1833ESO    H1a28992   0.152   3.181   0.924 -0.1819  2.0035 -3.7072
 1833ESO    C2a28993   0.259   3.141   0.743 -0.4040 -0.2712  0.6102
 1833ESO    H2a28994   0.246   3.079   0.655  0.9460 -0.9736  0.0345
 1833ESO    H2a28995   0.363   3.134   0.772 -1.2669  1.2050 -1.4855
 1833ESO    H2a28996   0.240   3.244   0.724  0.1660  0.9710 -0.3755
 1834ESO     O128997   1.288   6.765   0.186  0.0583  0.2685  0.6271
 1834ESO     O128998   1.171   6.715   0.386  0.2449 -0.1676 -0.1104
 1834ESO     O128999   1.315   6.546   0.281  0.1942  0.3807 -0.8416
 1834ESO      S29000   1.287   6.686   0.306 -0.1203  0.0536 -0.4941
 1834ESO     O229001   1.410   6.744   0.385  0.2662  0.4971 -0.2549
 1834ESO    C1a29002   1.438   6.688   0.514 -0.4444  0.1238 -0.6862
 1834ESO    H1a29003   1.376   6.604   0.552 -0.6707 -1.8989 -0.6477
 1834ESO    H1a29004   1.547   6.666   0.518  1.4583 -0.2867 -3.1571
 1834ESO    C2a29005   1.413   6.798   0.613 -0.4595  1.0242  0.2580
 1834ESO    H2a29006   1.469   6.886   0.583 -0.7053  2.2902 -1.4096
 1834ESO    H2a29007   1.428   6.771   0.713 -5.0608  1.3432  0.6111
 1834ESO    H2a29008   1.310   6.834   0.602 -0.3724 -2.4128  2.9295
 1835ESO     O129009   5.222   2.252   2.416 -0.3864 -0.2023  0.4215
 1835ESO     O129010   5.320   2.087   2.568  0.2971 -0.3779  0.3974
 1835ESO     O129011   5.123   2.206   2.627  0.3767  0.1379 -0.4282
 1835ESO      S29012   5.200   2.151   2.516  0.1580 -0.3417 -0.0223
 1835ESO     O229013   5.120   2.035   2.442 -0.6870 -0.2226 -0.3025
 1835ESO    C1a29014   5.080   1.931   2.540 -0.0176  0.6388 -0.1548
 1835ESO    H1a29015   5.168   1.892   2.595  4.7470  1.1944  4.9382
 1835ESO    H1a29016   5.009   1.971   2.615 -2.1624 -1.5098 -1.6147
 1835ESO    C2a29017   5.021   1.818   2.454  0.5517 -0.4503 -0.0327
 1835ESO    H2a29018   4.929   1.854   2.410  0.8514 -2.7831  1.8955
 1835ESO    H2a29019   5.007   1.725   2.513  1.0767 -0.3438  0.2132
 1835ESO    H2a29020   5.080   1.794   2.365  0.8420 -0.4540 -0.3765
 1836ESO     O129021   6.807   2.992   5.273 -0.3685  0.1900 -0.4560
 1836ESO     O129022   6.747   3.089   5.065 -0.6966  0.1765 -0.4232
 1836ESO     O129023   6.587   2.963   5.184 -0.2032  0.7108 -0.1096
 1836ESO      S29024   6.699   3.043   5.194 -0.4133  0.2503  0.1692
 1836ESO     O229025   6.651   3.170   5.281  0.2720  0.7629 -0.5220
 1836ESO    C1a29026   6.581   3.281   5.215 -0.1197 -0.0277 -0.3828
 1836ESO    H1a29027   6.654   3.359   5.194 -0.7258  0.1047  0.2801
 1836ESO    H1a29028   6.543   3.241   5.119 -1.5084 -0.0959  1.0852
 1836ESO    C2a29029   6.469   3.330   5.299 -0.7552  0.3702  0.0313
 1836ESO    H2a29030   6.384   3.255   5.304  1.6017 -1.8177 -2.1029
 1836ESO    H2a29031   6.438   3.432   5.265  0.6249  0.6396 -1.7898
 1836ESO    H2a29032   6.512   3.339   5.401 -0.1020  1.0852  0.6772
 1837ESO     O129033   5.992   1.939   5.481 -0.6137 -0.1983  0.1215
 1837ESO     O129034   5.853   1.905   5.666 -0.2293  0.1126 -0.3357
 1837ESO     O129035   5.979   1.721   5.587  0.2049 -0.0658  0.0089
 1837ESO      S29036   5.973   1.864   5.600 -0.0922  0.8340  0.2077
 1837ESO     O229037   6.074   1.906   5.710  0.2282 -0.3031  0.2626
 1837ESO    C1a29038   6.207   1.848   5.703 -0.4217 -0.1200 -0.0717
 1837ESO    H1a29039   6.205   1.744   5.737  1.6059  0.9288  1.6491
 1837ESO    H1a29040   6.244   1.864   5.608  0.2011 -0.3170  2.1794
 1837ESO    C2a29041   6.298   1.923   5.801 -0.3147  0.0402 -0.2760
 1837ESO    H2a29042   6.392   1.867   5.815 -2.6478 -0.4900  2.4649
 1837ESO    H2a29043   6.249   1.936   5.899 -0.7449 -1.3009  4.0496
 1837ESO    H2a29044   6.314   2.020   5.762 -0.7548 -3.1122  0.2660
 1838ESO     O129045   2.707   3.021   0.533  0.7262  0.1757 -0.6381
 1838ESO     O129046   2.587   3.127   0.350 -0.1614 -0.1915 -0.6275
 1838ESO     O129047   2.829   3.111   0.348  0.6723 -0.2098  0.1906
 1838ESO      S29048   2.704   3.051   0.393  0.4495  0.2480  0.0051
 1838ESO     O229049   2.690   2.910   0.329 -0.1472  0.5333 -0.2108
 1838ESO    C1a29050   2.693   2.915   0.182  0.1075 -0.2288  0.0873
 1838ESO    H1a29051   2.604   2.861   0.143  0.9825 -1.8825  0.9949
 1838ESO    H1a29052   2.687   3.024   0.148  1.4747  3.5312 -3.3469
 1838ESO    C2a29053   2.819   2.850   0.126  0.2265 -0.3979  0.4656
 1838ESO    H2a29054   2.816   2.741   0.152 -1.6742 -0.9730  1.1977
 1838ESO    H2a29055   2.915   2.888   0.163  0.1081  1.2742  1.0538
 1838ESO    H2a29056   2.816   2.854   0.023 -1.8723 -0.7803 -0.9750
 1839ESO     O129057   5.243   4.881   6.158 -0.7382 -0.4162  0.2376
 1839ESO     O129058   5.138   5.052   6.010 -0.0978 -0.3588  0.0729
 1839ESO     O129059   5.041   5.000   6.219  0.2781  0.4243  0.0981
 1839ESO      S29060   5.163   5.006   6.147  0.2803 -0.0247  0.4055
 1839ESO     O229061   5.236   5.128   6.217  0.0736  0.1757 -0.5325
 1839ESO    C1a29062   5.369   5.150   6.173  0.1554 -0.9977  0.3454
 1839ESO    H1a29063   5.395   5.071   6.108  0.7695  0.8204  2.8256
 1839ESO    H1a29064   5.379   5.246   6.122  0.3971  1.4940  0.2604
 1839ESO    C2a29065   5.459   5.130   6.297  0.1625  0.1441 -0.3538
 1839ESO    H2a29066   5.434   5.205   6.374 -2.9934  1.2213  2.1730
 1839ESO    H2a29067   5.562   5.136   6.261 -0.3085 -1.5526  0.0724
 1839ESO    H2a29068   5.448   5.026   6.344  2.1476 -0.0429  1.3640
 1840ESO     O129069   5.846   2.581   2.187 -0.1317  0.2916 -0.3040
 1840ESO     O129070   5.961   2.593   1.979  0.3502  0.3620  0.7801
 1840ESO     O129071   6.068   2.494   2.168 -0.2003 -0.6245 -0.2039
 1840ESO      S29072   5.948   2.524   2.103  0.2454  0.2633 -0.1586
 1840ESO     O229073   5.891   2.381   2.072  0.2332  0.1092  0.4479
 1840ESO    C1a29074   5.778   2.357   1.987 -0.0083  0.3940  0.7865
 1840ESO    H1a29075   5.686   2.333   2.043 -2.4550  1.8288  1.2500
 1840ESO    H1a29076   5.760   2.458   1.932 -2.9757  3.7895  1.3849
 1840ESO    C2a29077   5.826   2.245   1.896 -0.5272  0.4149  0.0858
 1840ESO    H2a29078   5.915   2.277   1.849  2.1229 -0.9566  2.5538
 1840ESO    H2a29079   5.757   2.206   1.823  1.2902 -0.0942  0.7705
 1840ESO    H2a29080   5.847   2.159   1.966 -1.8421 -1.0897 -0.3429
 1841ESO     O129081   1.851   3.736   3.578  0.0152 -0.1866  0.2744
 1841ESO     O129082   1.646   3.657   3.682 -0.5380 -0.1775 -0.1755
 1841ESO     O129083   1.830   3.733   3.814  0.2470 -0.1475 -0.6337
 1841ESO      S29084   1.761   3.747   3.692 -0.3441  0.0936  0.0822
 1841ESO     O229085   1.697   3.891   3.682  0.4025 -0.1001 -0.5597
 1841ESO    C1a29086   1.790   4.005   3.710 -0.0843  0.2573  0.8789
 1841ESO    H1a29087   1.735   4.061   3.792 -0.2529  2.4933 -2.9063
 1841ESO    H1a29088   1.892   3.970   3.741 -0.1902  0.2730  1.6782
 1841ESO    C2a29089   1.800   4.084   3.584  0.0734  0.0537 -0.1328
 1841ESO    H2a29090   1.716   4.070   3.519  2.5905  1.1353 -1.7138
 1841ESO    H2a29091   1.888   4.061   3.516  0.1850 -1.2617 -1.3474
 1841ESO    H2a29092   1.807   4.191   3.608  0.0062  0.8949 -2.0652
 1842ESO     O129093   6.083   2.994   4.548  0.3247 -0.0810  0.6125
 1842ESO     O129094   5.921   3.080   4.704 -0.0505  0.2733  0.0856
 1842ESO     O129095   5.903   2.857   4.613  0.1152  0.6621 -0.0906
 1842ESO      S29096   5.990   2.967   4.654  0.5829  0.3364  0.3583
 1842ESO     O229097   6.078   2.919   4.766  0.0469 -0.0030 -0.1148
 1842ESO    C1a29098   6.121   2.782   4.780 -0.5176  0.0018  0.4454
 1842ESO    H1a29099   6.036   2.719   4.791  0.2009  1.5887 -1.9149
 1842ESO    H1a29100   6.178   2.764   4.686  0.1526 -2.9921 -1.6264
 1842ESO    C2a29101   6.198   2.766   4.906  0.7356 -0.1207 -0.5217
 1842ESO    H2a29102   6.274   2.844   4.920 -1.6095  1.3946  1.0094
 1842ESO    H2a29103   6.253   2.674   4.903 -0.2788 -1.4383  2.3206
 1842ESO    H2a29104   6.151   2.760   5.003  2.3171  2.2118 -0.1367
 1843ESO     O129105   5.854   4.686   4.142 -0.3041  0.8936  0.5022
 1843ESO     O129106   5.881   4.894   4.039 -0.1612 -0.5678  0.6911
 1843ESO     O129107   5.713   4.745   3.953 -0.2144  0.1091  0.6129
 1843ESO      S29108   5.788   4.790   4.066 -0.1269 -0.1992  0.4868
 1843ESO     O229109   5.687   4.859   4.161  0.0290 -0.0500 -0.3315
 1843ESO    C1a29110   5.587   4.949   4.112 -0.0578 -0.1145  0.6396
 1843ESO    H1a29111   5.622   4.992   4.019  2.2832 -0.5403  0.5173
 1843ESO    H1a29112   5.499   4.899   4.084 -0.6889  0.7011 -1.1956
 1843ESO    C2a29113   5.558   5.054   4.214 -0.4387  0.2548 -0.0117
 1843ESO    H2a29114   5.554   5.018   4.321  0.3939 -1.8443  0.2400
 1843ESO    H2a29115   5.466   5.108   4.203  0.6403 -1.4175 -0.2849
 1843ESO    H2a29116   5.640   5.114   4.197 -2.3093  2.1688 -1.2643
 1844ESO     O129117   2.854   2.922   2.760  0.2909 -0.0129 -0.3537
 1844ESO     O129118   2.925   2.712   2.864  0.0467  0.0984  0.0401
 1844ESO     O129119   3.003   2.921   2.946 -0.5288 -0.1372  0.3331
 1844ESO      S29120   2.897   2.855   2.882 -0.2340  0.5174 -0.0138
 1844ESO     O229121   2.782   2.874   2.982  0.0420 -0.1149  0.1449
 1844ESO    C1a29122   2.653   2.811   2.956 -0.0515 -0.4228 -0.1896
 1844ESO    H1a29123   2.639   2.769   2.857  0.4172 -1.3488  2.2123
 1844ESO    H1a29124   2.647   2.730   3.025 -2.5624  0.8434  0.4957
 1844ESO    C2a29125   2.540   2.907   2.973  0.8564 -1.2051  0.1013
 1844ESO    H2a29126   2.551   3.008   2.929 -0.3086 -1.8638 -1.8491
 1844ESO    H2a29127   2.542   2.946   3.080  2.1389 -1.6932  2.2164
 1844ESO    H2a29128   2.437   2.873   2.949 -2.0263 -0.7537  1.5907
 1845ESO     O129129   1.393   4.706   1.425  0.2133 -0.3336 -0.0686
 1845ESO     O129130   1.385   4.468   1.458 -0.0060  0.5803 -0.5372
 1845ESO     O129131   1.227   4.604   1.579  0.1373 -0.3531  0.2762
 1845ESO      S29132   1.311   4.590   1.460  0.3203  0.0043 -0.4974
 1845ESO     O229133   1.216   4.580   1.341 -0.0441  0.2280  0.0532
 1845ESO    C1a29134   1.112   4.479   1.343  0.0595  0.2419  0.9955
 1845ESO    H1a29135   1.145   4.386   1.367 -1.3906  0.2678  2.7885
 1845ESO    H1a29136   1.040   4.500   1.420 -1.4461 -3.7683 -0.2177
 1845ESO    C2a29137   1.052   4.498   1.209  1.0167 -0.6931 -1.2896
 1845ESO    H2a29138   0.983   4.419   1.178  2.5989 -2.8120 -3.1957
 1845ESO    H2a29139   1.122   4.505   1.127 -0.6676 -2.9816 -2.7788
 1845ESO    H2a29140   0.990   4.591   1.223 -0.7329 -0.1666 -0.8879
 1846ESO     O129141   0.530   3.136   3.470  0.3842  0.3831 -0.2307
 1846ESO     O129142   0.664   2.967   3.354  0.0436  0.0637 -0.4552
 1846ESO     O129143   0.764   3.162   3.448  0.0360  0.3472 -0.2874
 1846ESO      S29144   0.656   3.068   3.454 -0.1803 -0.1826 -0.3747
 1846ESO     O229145   0.675   3.005   3.597 -0.8127  0.0420 -0.6317
 1846ESO    C1a29146   0.701   3.076   3.720  0.2964 -0.1576  0.5554
 1846ESO    H1a29147   0.778   3.153   3.716  0.2769 -2.1911 -2.6307
 1846ESO    H1a29148   0.613   3.129   3.742  1.1911  4.0069 -0.3396
 1846ESO    C2a29149   0.729   2.969   3.828  0.0620  0.1908 -0.7092
 1846ESO    H2a29150   0.825   2.926   3.805 -0.5666 -0.7881 -0.0716
 1846ESO    H2a29151   0.650   2.896   3.830 -0.9293  0.6373  0.4693
 1846ESO    H2a29152   0.742   3.020   3.918 -1.7308 -1.3163 -0.6786
 1847ESO     O129153   5.788   5.706   2.848  0.4888 -0.0996 -0.1633
 1847ESO     O129154   5.574   5.804   2.884 -0.0543 -0.1992  0.5125
 1847ESO     O129155   5.726   5.791   3.062 -0.2961  0.4389 -0.1304
 1847ESO      S29156   5.713   5.803   2.919 -0.0877  0.4299  0.1677
 1847ESO     O229157   5.772   5.945   2.881 -0.6933  0.3857  0.5666
 1847ESO    C1a29158   5.761   5.991   2.745 -0.8112  0.0891 -0.3361
 1847ESO    H1a29159   5.770   5.903   2.684  1.3050  0.0079 -0.4203
 1847ESO    H1a29160   5.666   6.023   2.729  1.5375  0.9755  1.4494
 1847ESO    C2a29161   5.871   6.097   2.719  0.2815  0.9183  0.4679
 1847ESO    H2a29162   5.957   6.041   2.692 -1.7528 -2.2300  2.6510
 1847ESO    H2a29163   5.882   6.153   2.811 -0.4657  0.3505 -0.0093
 1847ESO    H2a29164   5.837   6.158   2.632  1.8496  2.1873  1.9662
 1848ESO     O129165   3.401   4.162   3.362  0.2676 -0.4282 -0.4974
 1848ESO     O129166   3.557   4.122   3.186  0.8174  0.7554  0.6182
 1848ESO     O129167   3.638   4.139   3.407  0.2078 -0.0617 -0.2021
 1848ESO      S29168   3.527   4.103   3.328 -0.3594  0.1432  0.0526
 1848ESO     O229169   3.517   3.946   3.329 -0.2378  0.1810  0.7829
 1848ESO    C1a29170   3.496   3.881   3.450  0.5759  0.2335 -0.1688
 1848ESO    H1a29171   3.463   3.953   3.522 -1.7569  1.7319 -1.4618
 1848ESO    H1a29172   3.415   3.813   3.438 -1.1353  1.9220 -1.9914
 1848ESO    C2a29173   3.614   3.800   3.494  0.1682  0.7925 -0.1220
 1848ESO    H2a29174   3.572   3.748   3.582  2.5876  1.1744  1.3039
 1848ESO    H2a29175   3.701   3.857   3.533 -0.4855  1.6910 -0.9412
 1848ESO    H2a29176   3.653   3.724   3.422  1.5480 -3.5270 -0.3391
 1849ESO     O129177   6.070   2.206   3.377  0.0136 -0.3363 -0.1177
 1849ESO     O129178   6.085   1.977   3.449  0.3320 -0.5290 -0.1745
 1849ESO     O129179   5.972   2.148   3.583 -0.3120 -0.5647  0.0624
 1849ESO      S29180   6.012   2.100   3.455 -0.3194 -0.3841 -0.0100
 1849ESO     O229181   5.871   2.091   3.374 -0.0489  0.0469 -0.2316
 1849ESO    C1a29182   5.797   1.967   3.385 -0.8002  0.2709  0.2472
 1849ESO    H1a29183   5.852   1.888   3.330  0.2748 -1.9816 -1.3562
 1849ESO    H1a29184   5.789   1.943   3.486  2.4279  0.9681 -0.3692
 1849ESO    C2a29185   5.670   1.986   3.312  0.9114 -0.4873 -0.2798
 1849ESO    H2a29186   5.625   1.886   3.287  2.5247  0.1609 -1.8817
 1849ESO    H2a29187   5.685   2.034   3.215 -0.2380  0.0223  2.3761
 1849ESO    H2a29188   5.600   2.052   3.363 -1.4627  0.8390 -3.4846
 1850ESO     O129189   3.912   1.381   0.377  0.0017 -0.7374 -0.1672
 1850ESO     O129190   3.999   1.521   0.197  0.1109  0.1009 -0.1324
 1850ESO     O129191   4.018   1.283   0.186 -0.2379 -0.4387  0.3516
 1850ESO      S29192   3.941   1.397   0.238 -0.2459  0.0239  0.4279
 1850ESO     O229193   3.797   1.386   0.172 -0.0273  0.1323 -0.0779
 1850ESO    C1a29194   3.812   1.403   0.029 -0.4146 -0.7278 -0.5944
 1850ESO    H1a29195   3.855   1.506   0.010  1.9230 -2.5500  3.7860
 1850ESO    H1a29196   3.877   1.337  -0.022  0.0082  1.4020  0.9929
 1850ESO    C2a29197   3.677   1.391  -0.037  0.5654 -0.0947 -0.2344
 1850ESO    H2a29198   3.688   1.349  -0.137  1.3945  1.1066 -0.2794
 1850ESO    H2a29199   3.623   1.481  -0.047  2.3914  0.0375 -1.3270
 1850ESO    H2a29200   3.618   1.328   0.025  0.6449  0.9332  3.4023
 1851ESO     O129201   2.578   0.195   3.647  0.1089  0.1342  0.9171
 1851ESO     O129202   2.563  -0.024   3.711 -0.1104  0.0756  0.0476
 1851ESO     O129203   2.562   0.141   3.880  0.2429  0.2942  0.3200
 1851ESO      S29204   2.529   0.108   3.748 -0.0120  0.1271 -0.2689
 1851ESO     O229205   2.370   0.117   3.730 -0.4651  0.5183  0.2390
 1851ESO    C1a29206   2.273   0.028   3.790 -0.0302 -0.1615  0.4485
 1851ESO    H1a29207   2.299   0.013   3.893  0.7658 -0.3782  0.7631
 1851ESO    H1a29208   2.182   0.080   3.791  2.0565  0.4265 -0.4170
 1851ESO    C2a29209   2.260  -0.102   3.709  0.5730 -0.5359 -0.0665
 1851ESO    H2a29210   2.201  -0.087   3.612 -0.9875  1.8117 -0.5057
 1851ESO    H2a29211   2.212  -0.187   3.756  1.7053 -0.3341  1.0636
 1851ESO    H2a29212   2.348  -0.144   3.684 -0.7466 -0.3847  1.2881
 1852ESO     O129213   2.440   4.489   1.988  0.1348  0.0187 -0.0502
 1852ESO     O129214   2.381   4.590   1.779 -0.2626 -0.0461 -0.2216
 1852ESO     O129215   2.495   4.379   1.783  0.4557  0.5054 -0.0718
 1852ESO      S29216   2.406   4.466   1.855 -0.0659  0.2648  0.1258
 1852ESO     O229217   2.264   4.404   1.863 -0.1289 -0.6055 -0.0138
 1852ESO    C1a29218   2.259   4.274   1.923  0.6122 -0.5866 -0.0829
 1852ESO    H1a29219   2.301   4.204   1.855 -0.6917  0.1208  2.3000
 1852ESO    H1a29220   2.311   4.270   2.023 -0.2459  1.0891  2.0224
 1852ESO    C2a29221   2.119   4.240   1.953  0.6228 -0.1971 -0.0786
 1852ESO    H2a29222   2.051   4.245   1.869  1.3646  0.2276  1.4304
 1852ESO    H2a29223   2.074   4.304   2.029 -0.6048 -0.1692  0.0460
 1852ESO    H2a29224   2.109   4.139   1.981  1.0042  0.8324 -1.0494
 1853ESO     O129225   2.307   3.093   4.903  0.5669  0.6742  1.1154
 1853ESO     O129226   2.506   2.991   4.991 -0.0662 -0.3937  0.3087
 1853ESO     O129227   2.367   3.111   5.129  0.4347 -0.1069  0.5244
 1853ESO      S29228   2.373   3.033   5.014  0.3833  0.1196  0.1086
 1853ESO     O229229   2.291   2.899   5.045  0.4492 -0.6693 -0.0466
 1853ESO    C1a29230   2.163   2.917   5.111  0.6420 -0.3389 -0.2375
 1853ESO    H1a29231   2.171   2.952   5.209 -0.7688 -1.0106 -1.3597
 1853ESO    H1a29232   2.097   2.974   5.050 -0.2418  0.6960  1.2243
 1853ESO    C2a29233   2.099   2.780   5.124 -0.4386 -0.0087  0.0245
 1853ESO    H2a29234   2.154   2.710   5.184 -1.9166 -2.0961  1.5690
 1853ESO    H2a29235   2.097   2.743   5.018 -0.8655  1.6665  0.6542
 1853ESO    H2a29236   1.998   2.791   5.153 -0.2330  0.9503  0.9925
 1854ESO     O129237   3.032   4.910   4.082 -0.2428 -0.4356 -0.0004
 1854ESO     O129238   3.066   4.916   4.318  0.4050  0.5399  0.1733
 1854ESO     O129239   3.249   4.909   4.178 -0.0948 -0.2295  0.0846
 1854ESO      S29240   3.114   4.955   4.188 -0.1645 -0.1010 -0.0413
 1854ESO     O229241   3.116   5.115   4.197  0.1344 -0.0058 -0.2302
 1854ESO    C1a29242   3.168   5.182   4.075  0.1554 -0.4758  0.3089
 1854ESO    H1a29243   3.268   5.140   4.046  1.0286 -2.9803  0.8196
 1854ESO    H1a29244   3.095   5.176   3.989 -3.1294  0.4185 -3.3019
 1854ESO    C2a29245   3.182   5.334   4.111  0.6006 -0.1919  0.3942
 1854ESO    H2a29246   3.098   5.373   4.170  0.2562 -0.2116  2.6406
 1854ESO    H2a29247   3.181   5.378   4.014 -1.6905 -0.8393  0.9195
 1854ESO    H2a29248   3.275   5.347   4.166  0.1114 -2.2110  0.7079
 1855ESO     O129249   4.392   1.907   4.881 -0.0920  0.1158 -0.3069
 1855ESO     O129250   4.485   2.129   4.929  0.1794 -0.5164  0.1359
 1855ESO     O129251   4.368   2.015   5.096  0.2141  0.1745  0.1689
 1855ESO      S29252   4.449   2.002   4.977 -0.2778  0.3279 -0.0560
 1855ESO     O229253   4.582   1.930   5.018 -0.5122 -0.1543  0.6437
 1855ESO    C1a29254   4.643   1.968   5.141  0.4050  0.4457 -0.2795
 1855ESO    H1a29255   4.689   2.068   5.128 -0.0534 -2.6792 -1.4183
 1855ESO    H1a29256   4.560   1.972   5.220 -1.7045 -0.5958 -0.2728
 1855ESO    C2a29257   4.739   1.861   5.187 -0.1879 -0.3606 -0.3537
 1855ESO    H2a29258   4.820   1.856   5.118 -1.3735  0.0588 -0.8604
 1855ESO    H2a29259   4.684   1.773   5.194  0.7275  1.2712 -0.3038
 1855ESO    H2a29260   4.769   1.886   5.292 -2.8196 -0.6059  4.3948
 1856ESO     O129261   2.486   4.919   0.545 -0.1567 -0.2097  0.0101
 1856ESO     O129262   2.505   4.697   0.457  0.1171 -0.3973 -0.2513
 1856ESO     O129263   2.558   4.880   0.315  0.5821  0.4240 -0.3282
 1856ESO      S29264   2.553   4.833   0.451  0.0414  0.2068 -0.0149
 1856ESO     O229265   2.701   4.822   0.495 -0.3974 -0.5148  0.1359
 1856ESO    C1a29266   2.747   4.793   0.635  0.0087  0.0220  0.4690
 1856ESO    H1a29267   2.735   4.879   0.702 -0.0637  0.2202  0.7008
 1856ESO    H1a29268   2.702   4.704   0.678 -0.2273 -0.6068 -2.5706
 1856ESO    C2a29269   2.892   4.753   0.610  0.2865  0.9368 -0.2504
 1856ESO    H2a29270   2.918   4.673   0.678 -1.7096 -2.6764 -1.7276
 1856ESO    H2a29271   2.963   4.838   0.600  1.4729 -0.1662  0.0413
 1856ESO    H2a29272   2.907   4.700   0.524 -2.5236 -0.1434  1.3901
 1857ESO     O129273   2.022   3.591   4.443 -0.1044  0.6942 -0.3551
 1857ESO     O129274   1.957   3.596   4.674  0.0301  0.5519  0.1276
 1857ESO     O129275   2.168   3.683   4.620  0.3040 -0.5000  0.5085
 1857ESO      S29276   2.033   3.660   4.571 -0.0830 -0.4998  0.1591
 1857ESO     O229277   1.980   3.801   4.556 -0.0107  0.0650 -0.0754
 1857ESO    C1a29278   1.842   3.833   4.541 -0.1227 -0.0565  0.1984
 1857ESO    H1a29279   1.811   3.864   4.441 -0.4257  4.3364 -1.4185
 1857ESO    H1a29280   1.786   3.740   4.556  1.8482  0.1431 -0.5513
 1857ESO    C2a29281   1.790   3.939   4.638 -0.8298 -1.2715  0.1826
 1857ESO    H2a29282   1.690   3.964   4.607 -2.2004  0.6914  1.7330
 1857ESO    H2a29283   1.855   4.022   4.645  2.2699 -0.6153 -0.2458
 1857ESO    H2a29284   1.792   3.895   4.734  0.6898 -2.2575 -0.8267
 1858ESO     O129285   1.987   1.268   5.884  0.3563  0.2501  0.1988
 1858ESO     O129286   1.950   1.064   5.750  0.0393 -0.3274  0.2754
 1858ESO     O129287   1.864   1.083   5.972  0.3238 -0.5989  0.3102
 1858ESO      S29288   1.900   1.155   5.853  0.3589 -0.0156  0.2268
 1858ESO     O229289   1.773   1.217   5.791  0.2585 -0.1344 -0.9300
 1858ESO    C1a29290   1.674   1.273   5.874  0.6866 -0.5202  0.3612
 1858ESO    H1a29291   1.597   1.197   5.881  1.5526 -1.8139 -1.8477
 1858ESO    H1a29292   1.712   1.287   5.972  4.7426  0.8204 -1.0994
 1858ESO    C2a29293   1.635   1.413   5.832 -0.0892 -0.2942  0.8280
 1858ESO    H2a29294   1.578   1.463   5.904  1.0224  1.5743  1.0413
 1858ESO    H2a29295   1.576   1.414   5.734  0.0386  3.4735 -3.0224
 1858ESO    H2a29296   1.719   1.477   5.812 -1.4325 -0.0879 -0.6311
 1859ESO     O129297   3.697   1.960   0.915  0.6400  0.9674  0.0016
 1859ESO     O129298   3.485   2.066   0.892  0.1900 -0.4347 -0.0006
 1859ESO     O129299   3.614   2.011   0.701  0.2531 -0.1666  0.0343
 1859ESO      S29300   3.580   1.977   0.837 -0.1934  0.2863 -0.1157
 1859ESO     O229301   3.519   1.835   0.832 -0.0947 -0.0150 -0.2731
 1859ESO    C1a29302   3.432   1.791   0.944 -0.2829 -0.0738  0.0294
 1859ESO    H1a29303   3.475   1.816   1.043 -0.3771 -0.1286 -0.9683
 1859ESO    H1a29304   3.344   1.856   0.937 -1.8804  1.7981 -2.6404
 1859ESO    C2a29305   3.409   1.642   0.923  0.4102 -0.2407  0.4907
 1859ESO    H2a29306   3.355   1.632   0.825 -1.2779 -0.1850 -1.0555
 1859ESO    H2a29307   3.358   1.606   1.010 -0.2196  1.1767 -4.0432
 1859ESO    H2a29308   3.495   1.569   0.917  0.8364  0.5057  1.1558
 1860ESO     O129309   5.222   2.743   3.060  0.4056 -0.1073 -0.3077
 1860ESO     O129310   5.104   2.618   2.890  0.1810  0.1907 -0.6438
 1860ESO     O129311   5.296   2.747   2.839  0.0319 -0.0413 -0.4896
 1860ESO      S29312   5.231   2.666   2.940  0.2820 -0.2445 -0.0845
 1860ESO     O229313   5.320   2.533   2.971 -0.1391  0.4229  0.0674
 1860ESO    C1a29314   5.439   2.547   3.048 -0.0014 -0.4065  0.1742
 1860ESO    H1a29315   5.511   2.476   3.009  1.8438 -1.2794  0.1016
 1860ESO    H1a29316   5.478   2.651   3.046 -0.2761 -0.6817  0.6656
 1860ESO    C2a29317   5.404   2.505   3.194 -0.0110 -0.2054 -0.2879
 1860ESO    H2a29318   5.328   2.568   3.237 -3.4016 -0.3824  0.9677
 1860ESO    H2a29319   5.497   2.522   3.251  1.4936  0.0447  1.8954
 1860ESO    H2a29320   5.370   2.406   3.188  0.8384  2.0290 -2.6529
 1861ESO     O129321   6.358   2.127   2.794 -0.0799  0.1562 -0.1346
 1861ESO     O129322   6.356   1.931   2.935  0.1891  0.5755 -0.3416
 1861ESO     O129323   6.425   1.917   2.704 -0.8247 -0.4228  0.6423
 1861ESO      S29324   6.417   1.998   2.825  0.1623  0.0256  0.1203
 1861ESO     O229325   6.571   2.032   2.860 -0.0390  0.0080  0.1760
 1861ESO    C1a29326   6.609   2.103   2.983  0.4690  0.1732 -0.2935
 1861ESO    H1a29327   6.651   2.195   2.950 -0.7222  0.1278  2.1695
 1861ESO    H1a29328   6.521   2.133   3.045 -0.2473 -2.0883 -1.2647
 1861ESO    C2a29329   6.701   2.015   3.070 -0.1742  0.1921  0.1178
 1861ESO    H2a29330   6.646   1.925   3.099  0.2512 -2.8832 -1.6505
 1861ESO    H2a29331   6.720   2.065   3.166 -0.8919  0.6838 -1.2921
 1861ESO    H2a29332   6.790   1.994   3.007 -2.2509 -0.1595  0.8071
 1862ESO     O129333   6.194   2.981   6.511 -0.2936 -1.2371 -0.0709
 1862ESO     O129334   6.277   3.053   6.729 -0.6881 -0.3981  0.2250
 1862ESO     O129335   6.395   2.886   6.606  1.0405  0.6053 -0.2900
 1862ESO      S29336   6.310   3.002   6.596  0.1832 -0.0330  0.0775
 1862ESO     O229337   6.388   3.116   6.528 -0.5023 -0.0718 -0.3337
 1862ESO    C1a29338   6.425   3.113   6.388  0.4599  0.1674  0.1668
 1862ESO    H1a29339   6.455   3.010   6.365 -0.1665 -0.7544  2.8774
 1862ESO    H1a29340   6.347   3.145   6.326  1.6756 -0.1250  1.0904
 1862ESO    C2a29341   6.540   3.214   6.370 -0.2444 -0.4528 -1.2096
 1862ESO    H2a29342   6.530   3.307   6.427 -2.0551  2.1577  0.3545
 1862ESO    H2a29343   6.545   3.241   6.270 -1.9357 -0.7056  0.1395
 1862ESO    H2a29344   6.645   3.176   6.389  2.1707  1.0720  0.0898
 1863ESO     O129345   6.697   6.606   0.539  0.1364 -0.1214 -0.3488
 1863ESO     O129346   6.890   6.663   0.658 -0.2133  0.6137  0.6556
 1863ESO     O129347   6.696   6.775   0.718 -0.1680 -0.0063  0.1256
 1863ESO      S29348   6.751   6.650   0.668 -0.2199  0.1140  0.0361
 1863ESO     O229349   6.725   6.533   0.771 -0.2474  0.6024 -0.4775
 1863ESO    C1a29350   6.783   6.560   0.903 -0.0934 -0.3513 -0.1982
 1863ESO    H1a29351   6.858   6.648   0.909 -0.2725 -0.3545 -0.9240
 1863ESO    H1a29352   6.701   6.588   0.971 -0.9638 -0.9700  1.1265
 1863ESO    C2a29353   6.836   6.428   0.949 -0.1061 -0.5151 -0.1580
 1863ESO    H2a29354   6.923   6.447   1.013 -3.8064 -1.9863  0.2165
 1863ESO    H2a29355   6.882   6.379   0.862  1.1444  1.2248 -1.5101
 1863ESO    H2a29356   6.772   6.356   1.003  0.9320 -0.0732 -2.8802
 1864ESO     O129357   2.401   2.734   5.854 -0.1118 -0.3294  0.2411
 1864ESO     O129358   2.346   2.925   5.731 -0.5533 -0.4200 -0.3336
 1864ESO     O129359   2.172   2.765   5.788  0.1693 -0.2753 -0.1100
 1864ESO      S29360   2.298   2.829   5.824 -0.1043 -0.1599 -0.1733
 1864ESO     O229361   2.273   2.910   5.962  0.2587 -0.6803  0.2123
 1864ESO    C1a29362   2.183   3.023   5.949  0.1519 -0.1099  0.0734
 1864ESO    H1a29363   2.123   3.011   5.857  1.7632  0.6810 -0.7060
 1864ESO    H1a29364   2.110   3.025   6.023 -0.2564 -0.2188 -2.4456
 1864ESO    C2a29365   2.267   3.149   5.955 -0.4652  0.1765 -0.4188
 1864ESO    H2a29366   2.329   3.159   6.043  1.0571 -0.4486 -2.6470
 1864ESO    H2a29367   2.195   3.229   5.971  1.0172  1.5524 -0.4357
 1864ESO    H2a29368   2.321   3.172   5.861  3.2802 -1.6501 -0.7236
 1865ESO     O129369   5.328   2.226   3.669  0.5907 -0.7348  0.0273
 1865ESO     O129370   5.123   2.244   3.563 -0.3383  0.3680  0.1959
 1865ESO     O129371   5.307   2.367   3.474  0.0369 -0.6716  0.2909
 1865ESO      S29372   5.260   2.247   3.541 -0.0167  0.0196  0.0653
 1865ESO     O229373   5.310   2.118   3.451  0.1729 -0.2215 -0.5989
 1865ESO    C1a29374   5.246   2.087   3.325  0.5126  0.4698 -0.1604
 1865ESO    H1a29375   5.141   2.066   3.346  0.1371 -0.4729 -0.8764
 1865ESO    H1a29376   5.260   2.168   3.252  0.4521  0.7664 -0.2524
 1865ESO    C2a29377   5.307   1.952   3.275  0.6317 -0.1421 -0.0511
 1865ESO    H2a29378   5.402   1.957   3.224 -1.9741  1.0658 -3.4437
 1865ESO    H2a29379   5.241   1.904   3.209 -2.9298 -1.1467 -0.2730
 1865ESO    H2a29380   5.327   1.884   3.356 -1.1555  1.8178  1.7459
 1866ESO     O129381   6.500   3.667   6.795  0.2570 -0.8479  0.0055
 1866ESO     O129382   6.427   3.784   6.989  0.2060  0.1383 -0.1929
 1866ESO     O129383   6.270   3.738   6.818  0.8554 -0.0113 -0.5791
 1866ESO      S29384   6.392   3.693   6.884  0.3166 -0.1106  0.4332
 1866ESO     O229385   6.356   3.555   6.951  0.3495  0.5521  0.0080
 1866ESO    C1a29386   6.252   3.550   7.049  0.3536 -0.5374  0.3495
 1866ESO    H1a29387   6.300   3.534   7.142 -1.4420 -2.2870 -1.9901
 1866ESO    H1a29388   6.192   3.643   7.047 -2.1347  0.3032  2.1216
 1866ESO    C2a29389   6.167   3.429   7.009 -0.3955  0.8143  0.5860
 1866ESO    H2a29390   6.083   3.413   7.070  2.2232  0.5381  1.1583
 1866ESO    H2a29391   6.219   3.331   7.001 -0.9659  0.7194  0.6147
 1866ESO    H2a29392   6.120   3.447   6.909 -1.8748  0.2017 -0.7102
 1867ESO     O129393   1.874   0.648   0.827  0.0631  0.3274 -0.3078
 1867ESO     O129394   1.637   0.585   0.800 -1.4317  0.1410  0.1192
 1867ESO     O129395   1.700   0.801   0.752 -0.1841 -0.0280  0.3776
 1867ESO      S29396   1.747   0.667   0.757  0.0587 -0.0382  0.2161
 1867ESO     O229397   1.783   0.631   0.610  0.2586 -0.3095 -0.0583
 1867ESO    C1a29398   1.681   0.637   0.504  0.4614 -0.2063  0.1731
 1867ESO    H1a29399   1.588   0.651   0.557  2.2991 -0.1403 -0.3951
 1867ESO    H1a29400   1.705   0.727   0.442 -0.9418  0.4217 -0.3136
 1867ESO    C2a29401   1.683   0.506   0.434 -0.2923 -0.4297 -0.1506
 1867ESO    H2a29402   1.771   0.489   0.368  1.0132  0.9233 -0.3446
 1867ESO    H2a29403   1.592   0.495   0.375 -0.4942  1.0536 -2.6562
 1867ESO    H2a29404   1.695   0.418   0.508 -0.6179  0.6437  0.5550
 1868ESO     O129405   6.561   4.192   4.452 -0.5705 -0.0330  0.5521
 1868ESO     O129406   6.602   4.013   4.298  0.8603  0.4901 -0.7137
 1868ESO     O129407   6.415   4.009   4.454  0.0212  0.0633 -0.3746
 1868ESO      S29408   6.509   4.088   4.376 -0.6983  0.3085 -0.3060
 1868ESO     O229409   6.416   4.157   4.269  0.1929  0.2948 -0.3440
 1868ESO    C1a29410   6.462   4.253   4.170 -0.0173 -0.0869 -0.3588
 1868ESO    H1a29411   6.436   4.349   4.212 -0.2075 -1.0950  1.8323
 1868ESO    H1a29412   6.567   4.251   4.163 -2.2176  0.0890 -1.9679
 1868ESO    C2a29413   6.394   4.235   4.033  0.1776 -0.8250 -0.2923
 1868ESO    H2a29414   6.424   4.317   3.968  1.5697  0.8873  1.7534
 1868ESO    H2a29415   6.288   4.250   4.058 -3.1167 -0.8293  0.0309
 1868ESO    H2a29416   6.412   4.136   3.999  0.0473 -0.6100  0.6202
 1869ESO     O129417   5.684   4.763   5.565 -0.2309  0.2115  0.5490
 1869ESO     O129418   5.471   4.648   5.591  0.2348 -0.1230  0.0181
 1869ESO     O129419   5.676   4.523   5.568 -0.5068 -0.5032  0.6264
 1869ESO      S29420   5.615   4.644   5.615  0.1916 -0.2668  0.5694
 1869ESO     O229421   5.638   4.646   5.771  0.3872 -0.2458 -0.3349
 1869ESO    C1a29422   5.562   4.554   5.846  0.6028 -0.1684 -0.2177
 1869ESO    H1a29423   5.485   4.613   5.891  0.3187  0.9378 -0.9916
 1869ESO    H1a29424   5.519   4.472   5.793  0.0430  1.4786 -0.8358
 1869ESO    C2a29425   5.669   4.489   5.938  0.7300  0.4152 -0.2545
 1869ESO    H2a29426   5.753   4.439   5.887 -1.8252 -0.4575 -1.9863
 1869ESO    H2a29427   5.627   4.415   6.001 -0.5142 -1.0418  0.5134
 1869ESO    H2a29428   5.712   4.567   6.001 -0.0161 -0.7718 -2.2838
 1870ESO     O129429   4.490   0.689   6.723 -0.1887  0.6142  0.0271
 1870ESO     O129430   4.426   0.650   6.492 -0.5302 -0.2732  0.1052
 1870ESO     O129431   4.594   0.510   6.600 -0.2623  0.3321  0.1252
 1870ESO      S29432   4.479   0.592   6.613  0.3955  0.0591  0.1223
 1870ESO     O229433   4.371   0.496   6.672 -0.0669 -0.5935 -0.3807
 1870ESO    C1a29434   4.318   0.381   6.596  0.2835 -0.0830 -0.6537
 1870ESO    H1a29435   4.350   0.378   6.491  0.4676 -0.1036 -1.2222
 1870ESO    H1a29436   4.341   0.285   6.642 -2.3137 -0.5173 -0.6796
 1870ESO    C2a29437   4.169   0.419   6.595  0.0640 -0.3633  0.0651
 1870ESO    H2a29438   4.138   0.413   6.704  1.0216 -1.0936  2.3130
 1870ESO    H2a29439   4.104   0.346   6.541 -0.0755 -0.6631 -0.6703
 1870ESO    H2a29440   4.161   0.520   6.550  1.4915  0.7991  3.1881
 1871ESO     O129441   5.335   6.457   0.707  0.2510 -0.0213 -0.2630
 1871ESO     O129442   5.443   6.647   0.800 -0.0586  0.3525  0.3477
 1871ESO     O129443   5.570   6.492   0.663  0.6884 -0.1769 -0.2338
 1871ESO      S29444   5.444   6.553   0.691  0.1988 -0.2550 -0.2064
 1871ESO     O229445   5.393   6.645   0.573 -0.3342 -0.0403 -0.0430
 1871ESO    C1a29446   5.367   6.587   0.439 -0.0511 -0.0496 -0.1108
 1871ESO    H1a29447   5.424   6.637   0.362  0.5984  0.3424 -0.4807
 1871ESO    H1a29448   5.390   6.483   0.430  0.6706  0.5071 -0.5472
 1871ESO    C2a29449   5.218   6.603   0.422 -0.1722  0.6027  0.1101
 1871ESO    H2a29450   5.196   6.707   0.412 -3.4996 -1.0668  1.5418
 1871ESO    H2a29451   5.154   6.548   0.490  0.4117  1.2764 -2.0438
 1871ESO    H2a29452   5.184   6.563   0.329 -0.4119  0.7701 -2.0889
 1872ESO     O129453   0.889   4.569   2.168  0.0526 -0.4056 -0.0080
 1872ESO     O129454   0.896   4.757   2.026 -0.4553 -0.1308 -0.2551
 1872ESO     O129455   0.972   4.767   2.253  0.5043 -0.0247  0.4514
 1872ESO      S29456   0.957   4.686   2.136  0.1354 -0.1090  0.3236
 1872ESO     O229457   1.101   4.648   2.087 -0.8329 -0.1816 -0.0721
 1872ESO    C1a29458   1.199   4.748   2.051 -0.2137  0.0480 -0.0026
 1872ESO    H1a29459   1.186   4.846   2.095  1.0158 -1.3526 -3.3029
 1872ESO    H1a29460   1.302   4.711   2.069  3.4032  2.7280  0.5800
 1872ESO    C2a29461   1.176   4.792   1.904 -0.3154 -0.6153  0.0606
 1872ESO    H2a29462   1.084   4.846   1.890 -0.3164 -2.4521  0.3115
 1872ESO    H2a29463   1.175   4.704   1.835  1.4284  0.2794  1.7850
 1872ESO    H2a29464   1.255   4.847   1.857 -0.1935 -2.9760 -0.8823
 1873ESO     O129465   2.377   1.202   0.347 -0.8102 -0.6074 -0.5825
 1873ESO     O129466   2.218   1.024   0.389  0.4648 -0.3399  0.1729
 1873ESO     O129467   2.362   1.103   0.567 -0.2214  0.4446 -0.0820
 1873ESO      S29468   2.293   1.135   0.443 -0.2561 -0.5660 -0.3151
 1873ESO     O229469   2.185   1.240   0.491  0.3591  0.6446  0.0566
 1873ESO    C1a29470   2.104   1.299   0.387  0.0271 -0.4797 -0.4593
 1873ESO    H1a29471   2.172   1.369   0.324 -2.1721 -0.2014  2.3586
 1873ESO    H1a29472   2.057   1.226   0.332  1.7268  2.3584  0.2357
 1873ESO    C2a29473   1.993   1.377   0.453  0.0305 -0.2999 -0.2584
 1873ESO    H2a29474   2.026   1.444   0.534 -1.9359 -2.0791  0.3708
 1873ESO    H2a29475   1.930   1.306   0.492 -1.2412  1.5480  0.9089
 1873ESO    H2a29476   1.939   1.429   0.384  1.0265 -0.0998  0.2746
 1874ESO     O129477   5.438   5.990   3.777 -0.1192  0.0318  0.3783
 1874ESO     O129478   5.414   6.223   3.790 -0.2715 -1.0266  0.5808
 1874ESO     O129479   5.503   6.118   3.590 -0.1664 -0.5602 -0.6350
 1874ESO      S29480   5.411   6.107   3.704 -0.0772  0.7701  0.1614
 1874ESO     O229481   5.266   6.102   3.634 -0.3520  0.0292  0.1817
 1874ESO    C1a29482   5.238   6.155   3.500 -0.0201  0.1710 -0.0441
 1874ESO    H1a29483   5.288   6.255   3.502 -0.1238 -3.7951 -0.6386
 1874ESO    H1a29484   5.281   6.092   3.424  1.1146 -0.5431  0.4443
 1874ESO    C2a29485   5.094   6.168   3.477  1.0654 -0.5397  0.6274
 1874ESO    H2a29486   5.081   6.188   3.372  1.4067 -0.2278  1.1616
 1874ESO    H2a29487   5.040   6.248   3.529 -0.8648 -1.1983  2.7845
 1874ESO    H2a29488   5.034   6.072   3.495  0.1295  0.5525 -1.0131
 1875ESO     O129489   1.481   4.174   4.290 -0.0846 -0.1874  0.3085
 1875ESO     O129490   1.479   4.416   4.275 -0.1178  0.2676  0.1885
 1875ESO     O129491   1.520   4.294   4.083 -0.2633  0.4448  0.5815
 1875ESO      S29492   1.455   4.290   4.208  0.2758  0.0762 -0.1798
 1875ESO     O229493   1.301   4.291   4.182  0.0029  0.2131 -0.1210
 1875ESO    C1a29494   1.209   4.310   4.296 -0.6948 -0.9408  0.4251
 1875ESO    H1a29495   1.223   4.227   4.366 -1.5481 -0.1679  2.0246
 1875ESO    H1a29496   1.225   4.409   4.352 -2.1166  3.4659  1.7404
 1875ESO    C2a29497   1.070   4.322   4.234 -0.4342 -0.1361 -0.2362
 1875ESO    H2a29498   1.089   4.402   4.162  1.4462  0.3492  0.2515
 1875ESO    H2a29499   0.999   4.355   4.308 -2.0752  0.7018 -1.6583
 1875ESO    H2a29500   1.038   4.231   4.191  0.7854 -0.1349  1.4653
 1876ESO     O129501   2.336   3.997   2.221 -0.6064 -0.1061  0.3346
 1876ESO     O129502   2.392   3.900   2.012  0.8254 -0.1369 -1.1068
 1876ESO     O129503   2.352   3.766   2.200  0.1739 -0.6043 -0.7469
 1876ESO      S29504   2.317   3.885   2.132  0.1188  0.5981  0.4680
 1876ESO     O229505   2.163   3.878   2.110  0.4827 -0.0540 -0.5220
 1876ESO    C1a29506   2.110   3.764   2.028  0.1975 -0.1171 -1.0727
 1876ESO    H1a29507   2.137   3.782   1.921 -0.4807 -0.6003 -1.1058
 1876ESO    H1a29508   2.153   3.675   2.066  1.1168 -1.8024  1.2736
 1876ESO    C2a29509   1.963   3.755   2.043  0.2364 -0.0753  0.4266
 1876ESO    H2a29510   1.936   3.762   2.148 -1.4925 -1.9968 -1.9104
 1876ESO    H2a29511   1.910   3.668   2.008  0.6602 -0.1292 -0.0661
 1876ESO    H2a29512   1.921   3.839   1.993 -0.7218 -0.0935  0.7481
 1877ESO     O129513   2.084   1.466   1.700 -0.0666  0.1737  0.3275
 1877ESO     O129514   2.007   1.630   1.545 -0.5241  0.4475  0.5433
 1877ESO     O129515   1.905   1.410   1.544  0.3028 -0.5366 -0.4670
 1877ESO      S29516   1.973   1.513   1.621  0.4344  0.0823  0.0728
 1877ESO     O229517   1.867   1.572   1.722 -0.0999  0.2025  0.0288
 1877ESO    C1a29518   1.810   1.484   1.820  0.1541 -0.1251  0.1468
 1877ESO    H1a29519   1.770   1.397   1.771  0.5140  0.6712 -0.2536
 1877ESO    H1a29520   1.883   1.462   1.897  2.7867 -0.1653 -2.3504
 1877ESO    C2a29521   1.686   1.572   1.870  0.2729 -0.6766  0.7840
 1877ESO    H2a29522   1.649   1.624   1.788 -0.4224  0.3292  1.4700
 1877ESO    H2a29523   1.715   1.641   1.947 -0.4640  0.3920 -0.2380
 1877ESO    H2a29524   1.608   1.513   1.911  3.1100  1.4597  3.3847
 1878ESO     O129525   6.739   6.114   0.023  0.5578 -0.0348  0.0173
 1878ESO     O129526   6.812   6.198  -0.177 -0.6559 -0.2704  0.5460
 1878ESO     O129527   6.939   6.253   0.014 -0.2272 -0.2572  0.1171
 1878ESO      S29528   6.850   6.158  -0.048  0.1519  0.0207  0.2784
 1878ESO     O229529   6.944   6.032  -0.067 -0.7576 -0.1996 -0.1177
 1878ESO    C1a29530   6.901   5.912  -0.136 -0.3266 -0.8356  0.2931
 1878ESO    H1a29531   6.922   5.830  -0.074  0.8699 -0.2542 -0.4594
 1878ESO    H1a29532   6.791   5.921  -0.150 -1.1967  0.4155  1.3189
 1878ESO    C2a29533   6.988   5.909  -0.264 -0.0075 -0.0372  0.2381
 1878ESO    H2a29534   6.958   5.994  -0.322  0.0903 -0.9194  1.8586
 1878ESO    H2a29535   6.976   5.818  -0.316  1.2958  0.1710  0.4987
 1878ESO    H2a29536   7.092   5.917  -0.236 -0.1477  0.1735 -3.3698
 1879ESO     O129537   1.868   4.872   5.799  0.6388 -0.0732 -0.1885
 1879ESO     O129538   2.096   4.944   5.771 -0.3968 -0.2724  0.3022
 1879ESO     O129539   2.049   4.725   5.846 -0.1331  0.3429 -0.0289
 1879ESO      S29540   2.003   4.834   5.769 -0.1898 -0.2414 -0.2181
 1879ESO     O229541   1.982   4.785   5.616  0.0181 -0.3609  0.2726
 1879ESO    C1a29542   2.089   4.735   5.539  0.3433 -0.5183 -0.1461
 1879ESO    H1a29543   2.060   4.729   5.437  0.9135 -1.2457  0.3660
 1879ESO    H1a29544   2.164   4.806   5.548 -1.3850 -1.6031 -0.7909
 1879ESO    C2a29545   2.137   4.592   5.584  0.6253  0.2877 -0.6187
 1879ESO    H2a29546   2.050   4.525   5.616 -1.6012  0.8551  0.0416
 1879ESO    H2a29547   2.203   4.607   5.664  0.1172 -2.1800 -0.2333
 1879ESO    H2a29548   2.193   4.550   5.502 -2.6468  0.0346 -1.9863
 1880ESO     O129549   6.250   2.404   0.791  0.0594  0.4911  0.0120
 1880ESO     O129550   6.093   2.564   0.707 -0.0196 -0.0696  0.6187
 1880ESO     O129551   6.076   2.501   0.930 -0.2711 -0.5896 -0.4646
 1880ESO      S29552   6.163   2.519   0.819  0.6191  0.2277 -0.1139
 1880ESO     O229553   6.256   2.634   0.867  1.2033  0.2177  0.2103
 1880ESO    C1a29554   6.205   2.761   0.915 -0.0952  0.0387 -0.9775
 1880ESO    H1a29555   6.258   2.845   0.870  0.8119 -0.1187 -2.8701
 1880ESO    H1a29556   6.091   2.765   0.904 -2.7027 -0.6473 -2.4982
 1880ESO    C2a29557   6.248   2.772   1.069  0.1003 -0.0474  0.1144
 1880ESO    H2a29558   6.247   2.872   1.103  0.7322 -0.6385  2.9393
 1880ESO    H2a29559   6.353   2.744   1.081 -0.1360 -0.8335 -1.8903
 1880ESO    H2a29560   6.180   2.707   1.129  1.1704 -0.5018 -0.8550
 1881ESO     O129561   6.706   1.684   1.847  0.0510 -0.0130  0.1167
 1881ESO     O129562   6.820   1.853   1.981 -0.5266 -0.0825 -0.0204
 1881ESO     O129563   6.800   1.872   1.745 -0.0277 -0.1094 -0.1065
 1881ESO      S29564   6.737   1.825   1.866  0.0955 -0.3038 -0.2410
 1881ESO     O229565   6.604   1.913   1.892  0.2586  0.1701  0.7007
 1881ESO    C1a29566   6.601   2.049   1.840 -0.1662 -0.0009  0.0376
 1881ESO    H1a29567   6.701   2.099   1.850  1.5410 -0.0308 -2.9440
 1881ESO    H1a29568   6.579   2.062   1.736 -0.6481 -1.1872 -0.0647
 1881ESO    C2a29569   6.496   2.103   1.928 -0.1585 -0.7362 -0.0822
 1881ESO    H2a29570   6.510   2.064   2.030  3.7624 -0.2609 -0.6880
 1881ESO    H2a29571   6.397   2.066   1.905 -4.2116  0.3642  0.8477
 1881ESO    H2a29572   6.496   2.214   1.937 -1.6290 -0.5457  1.0994
 1882ESO     O129573   1.433   0.745   6.266 -0.1388 -0.0435  0.0035
 1882ESO     O129574   1.364   0.618   6.081 -0.0984  0.0829  0.1446
 1882ESO     O129575   1.205   0.761   6.190 -0.3466 -0.0212 -0.5585
 1882ESO      S29576   1.345   0.738   6.155  0.5572 -0.0311  0.1457
 1882ESO     O229577   1.381   0.865   6.061  0.0263  0.1408 -0.1529
 1882ESO    C1a29578   1.317   0.990   6.078 -0.2431 -0.0694  0.0192
 1882ESO    H1a29579   1.266   1.025   5.987 -0.4226  0.2269 -0.7854
 1882ESO    H1a29580   1.242   0.993   6.162  0.8720  1.0991 -0.8998
 1882ESO    C2a29581   1.424   1.096   6.091 -0.7073 -0.5055 -0.0901
 1882ESO    H2a29582   1.376   1.193   6.080  1.1030 -0.5436 -1.9457
 1882ESO    H2a29583   1.501   1.072   6.013  0.3054 -0.3213 -0.2871
 1882ESO    H2a29584   1.462   1.074   6.189 -0.1411 -3.1672 -0.6175
 1883ESO     O129585   5.345   0.996   4.058  0.0262 -0.4618 -0.1342
 1883ESO     O129586   5.186   1.163   4.116 -0.5881  0.2645  0.1468
 1883ESO     O129587   5.412   1.223   4.061 -0.3591  0.5494  0.1902
 1883ESO      S29588   5.304   1.131   4.039  0.9970  0.3464  0.0822
 1883ESO     O229589   5.262   1.135   3.892 -0.2260  0.4230  0.3326
 1883ESO    C1a29590   5.244   1.257   3.814 -0.5521 -0.1153 -0.8767
 1883ESO    H1a29591   5.183   1.325   3.873  0.0969 -0.2752  0.7944
 1883ESO    H1a29592   5.337   1.295   3.785 -0.8924 -1.2229  0.7158
 1883ESO    C2a29593   5.166   1.216   3.690  0.0802  0.6638  0.0395
 1883ESO    H2a29594   5.176   1.115   3.659  2.4360 -0.7973  3.6384
 1883ESO    H2a29595   5.169   1.276   3.602 -0.1816  0.5384  0.4543
 1883ESO    H2a29596   5.067   1.217   3.729 -2.8535 -1.6285  0.3590
 1884ESO     O129597   2.353   4.312   5.108  0.0001 -0.6066  0.1948
 1884ESO     O129598   2.389   4.531   5.196  0.1779 -0.0461 -0.2163
 1884ESO     O129599   2.462   4.344   5.324 -0.0874 -0.3618  0.1059
 1884ESO      S29600   2.438   4.396   5.189  0.3545 -0.0324  0.1730
 1884ESO     O229601   2.578   4.406   5.118  0.1063 -0.7263  0.1793
 1884ESO    C1a29602   2.670   4.498   5.176 -0.1824  0.1224  0.0835
 1884ESO    H1a29603   2.653   4.596   5.131 -0.1225  3.7729  1.2532
 1884ESO    H1a29604   2.671   4.505   5.282 -2.0676 -0.4774  0.4639
 1884ESO    C2a29605   2.810   4.466   5.112  0.2821 -0.2161  0.2797
 1884ESO    H2a29606   2.821   4.371   5.076 -0.2215 -2.0443 -0.7876
 1884ESO    H2a29607   2.883   4.480   5.192  0.8768 -1.9836  1.1487
 1884ESO    H2a29608   2.841   4.543   5.035 -0.7987  1.3327  1.2900
 1885ESO     O129609   1.133   1.118   1.611 -0.7634 -0.3413  0.2539
 1885ESO     O129610   1.268   0.950   1.720  0.1465 -0.0672  0.0095
 1885ESO     O129611   1.376   1.148   1.643 -0.5800  0.0116 -0.4669
 1885ESO      S29612   1.252   1.089   1.689 -0.1372 -0.3682  0.2877
 1885ESO     O229613   1.222   1.160   1.827 -0.4249  0.2241 -0.1348
 1885ESO    C1a29614   1.123   1.109   1.914 -0.4622 -0.0932 -0.4212
 1885ESO    H1a29615   1.030   1.122   1.860  0.5755  1.6917  0.9015
 1885ESO    H1a29616   1.138   1.007   1.933  0.1767 -1.6843  3.1050
 1885ESO    C2a29617   1.119   1.175   2.045  0.2464 -0.0603 -0.7957
 1885ESO    H2a29618   1.040   1.133   2.107  0.3529  2.0882 -0.8530
 1885ESO    H2a29619   1.100   1.284   2.038 -1.4882  2.5491  0.0348
 1885ESO    H2a29620   1.213   1.151   2.100 -2.5237 -1.3115 -0.7577
 1886ESO     O129621   5.809   4.617   6.479 -0.4174  0.0175  0.3955
 1886ESO     O129622   5.723   4.531   6.689 -0.3990  0.0726 -0.2985
 1886ESO     O129623   5.856   4.388   6.538 -0.3308  0.3191 -0.3511
 1886ESO      S29624   5.825   4.525   6.589 -0.4563 -0.0418 -0.6492
 1886ESO     O229625   5.958   4.566   6.663 -0.2832 -0.4007  0.2060
 1886ESO    C1a29626   5.994   4.494   6.787  0.3524 -0.0007  0.4915
 1886ESO    H1a29627   5.949   4.388   6.779  1.3286  0.5037 -0.1527
 1886ESO    H1a29628   6.106   4.487   6.795  1.6758 -3.7071 -0.5911
 1886ESO    C2a29629   5.944   4.565   6.914  0.0528  0.6201 -0.3919
 1886ESO    H2a29630   5.976   4.669   6.921 -1.8091 -0.7679  0.2962
 1886ESO    H2a29631   5.979   4.507   7.002  0.8554 -0.4699  1.9133
 1886ESO    H2a29632   5.827   4.562   6.925 -0.8965  2.4456 -0.6462
 1887ESO     O129633   0.623   5.144   4.558  0.2912  0.0334  0.0139
 1887ESO     O129634   0.571   4.931   4.648  0.0726  0.6046 -0.1262
 1887ESO     O129635   0.420   5.107   4.678  0.7702 -0.1790 -0.3523
 1887ESO      S29636   0.517   5.054   4.588 -0.0507 -0.1153 -0.4150
 1887ESO     O229637   0.436   5.012   4.458 -0.1279  0.5464 -0.0932
 1887ESO    C1a29638   0.507   4.962   4.346 -0.3566  0.2046 -0.1960
 1887ESO    H1a29639   0.605   5.011   4.344 -1.6279 -1.0137 -3.0991
 1887ESO    H1a29640   0.508   4.854   4.335 -1.9869  1.2110  1.5794
 1887ESO    C2a29641   0.436   5.017   4.221  0.3382  0.1691  0.4454
 1887ESO    H2a29642   0.463   5.122   4.205 -1.4687  0.8352  1.7830
 1887ESO    H2a29643   0.327   5.020   4.225  1.6773 -0.1208  1.2361
 1887ESO    H2a29644   0.463   4.961   4.125  2.7382 -0.0008 -1.9706
 1888ESO     O129645   0.231   0.142   2.641 -0.2169 -0.2548  0.1087
 1888ESO     O129646   0.261  -0.047   2.772  0.6180 -0.4190 -0.8369
 1888ESO     O129647   0.182   0.152   2.867 -0.4824 -0.6723 -0.4126
 1888ESO      S29648   0.184   0.070   2.751 -0.4257 -0.1283 -0.2718
 1888ESO     O229649   0.035   0.035   2.711  0.1183 -0.4091 -0.8333
 1888ESO    C1a29650  -0.061   0.139   2.724  0.6639 -0.4193  0.3275
 1888ESO    H1a29651  -0.089   0.144   2.830  1.2627 -0.8814 -0.6854
 1888ESO    H1a29652  -0.009   0.230   2.687 -0.7053 -1.8737  0.5763
 1888ESO    C2a29653  -0.177   0.095   2.634  0.6049 -0.4806  0.0285
 1888ESO    H2a29654  -0.151   0.076   2.530  0.2075  0.9512 -2.0762
 1888ESO    H2a29655  -0.260   0.163   2.632  0.2132  2.0509  1.8565
 1888ESO    H2a29656  -0.213  -0.003   2.669 -0.1055 -0.3300  1.2176
 1889ESO     O129657   0.281   5.154   0.688  0.0571 -1.1000 -0.5383
 1889ESO     O129658   0.374   5.004   0.536 -0.2873  0.2391  0.9949
 1889ESO     O129659   0.183   5.137   0.465  0.2019  0.1028 -0.0194
 1889ESO      S29660   0.297   5.125   0.552  0.1433  0.0052  0.1959
 1889ESO     O229661   0.405   5.231   0.494 -0.0274  0.3235  0.0627
 1889ESO    C1a29662   0.367   5.362   0.469 -0.5811  0.0423  1.1290
 1889ESO    H1a29663   0.336   5.370   0.362 -1.2113  0.9955  1.6796
 1889ESO    H1a29664   0.278   5.392   0.515  1.1237  0.4384  0.1448
 1889ESO    C2a29665   0.474   5.451   0.519 -0.7658 -0.7403  0.0155
 1889ESO    H2a29666   0.564   5.427   0.465  0.0610  0.3661 -0.9156
 1889ESO    H2a29667   0.498   5.440   0.624  0.7151  1.3131  1.0853
 1889ESO    H2a29668   0.447   5.554   0.511 -1.1973 -3.0842  1.7493
 1890ESO     O129669   2.507   6.098   5.031  0.2459 -0.0259  0.3712
 1890ESO     O129670   2.365   5.904   5.013 -0.1263 -0.5967 -0.2040
 1890ESO     O129671   2.443   6.021   4.818 -0.2485  0.0460 -0.6883
 1890ESO      S29672   2.471   5.982   4.953 -0.0047 -0.2658 -0.2362
 1890ESO     O229673   2.594   5.888   4.950  0.0841  0.3887  0.3006
 1890ESO    C1a29674   2.640   5.815   5.065 -0.1336  0.4608  0.3618
 1890ESO    H1a29675   2.750   5.831   5.073 -0.6794 -0.6994  2.1648
 1890ESO    H1a29676   2.604   5.847   5.159 -1.2277 -0.6931 -1.4885
 1890ESO    C2a29677   2.621   5.664   5.047  0.1742 -0.2482 -0.7977
 1890ESO    H2a29678   2.692   5.617   5.118  1.1463 -1.2476  1.7067
 1890ESO    H2a29679   2.628   5.632   4.940 -0.6705  0.1054  0.0039
 1890ESO    H2a29680   2.519   5.640   5.071  1.7492 -0.4366  1.2493
 1891ESO     O129681   3.513   0.717   3.483  0.6102 -0.0573  0.2986
 1891ESO     O129682   3.319   0.761   3.615 -0.5885 -0.1933  0.1093
 1891ESO     O129683   3.322   0.568   3.479 -0.2621  0.3328 -0.3380
 1891ESO      S29684   3.400   0.659   3.556  0.0897  0.1550  0.2326
 1891ESO     O229685   3.459   0.575   3.678 -0.4965 -0.3973 -0.0216
 1891ESO    C1a29686   3.364   0.534   3.783 -0.2240 -0.0573 -0.1784
 1891ESO    H1a29687   3.328   0.624   3.836 -0.8829  1.6764 -0.5539
 1891ESO    H1a29688   3.281   0.484   3.740  1.1859 -1.4723  1.9468
 1891ESO    C2a29689   3.441   0.439   3.876  0.2016 -0.3538 -0.2799
 1891ESO    H2a29690   3.420   0.457   3.980 -0.3260 -1.8049 -0.5759
 1891ESO    H2a29691   3.551   0.440   3.863  0.8742  2.6657  1.4889
 1891ESO    H2a29692   3.401   0.335   3.854 -0.2018 -1.2797 -0.8017
 1892ESO     O129693   2.984   1.814   2.607  0.6289 -0.1532 -0.2099
 1892ESO     O129694   3.039   1.977   2.774 -0.2843  0.5567 -0.8896
 1892ESO     O129695   2.816   1.893   2.757 -0.0910 -0.3973  0.3490
 1892ESO      S29696   2.957   1.866   2.738 -0.1029  0.1295  0.3872
 1892ESO     O229697   2.988   1.747   2.846 -0.8080  0.1606  0.6674
 1892ESO    C1a29698   2.914   1.626   2.830  0.6943 -0.8840  0.7553
 1892ESO    H1a29699   2.857   1.614   2.918 -0.9038 -0.8857 -0.7578
 1892ESO    H1a29700   2.852   1.633   2.739 -1.0061 -1.0786 -0.4519
 1892ESO    C2a29701   3.017   1.515   2.814 -0.0222  0.0916  0.0448
 1892ESO    H2a29702   3.089   1.500   2.895  0.2095 -1.1653 -3.7290
 1892ESO    H2a29703   3.069   1.541   2.723  3.0987 -4.7172 -1.6600
 1892ESO    H2a29704   2.970   1.420   2.795 -0.9009  0.4537  1.7308
 1893ESO     O129705   6.562   1.148   0.051 -0.4394  0.1637  0.3867
 1893ESO     O129706   6.787   1.147  -0.039  0.7071  0.1522 -0.9032
 1893ESO     O129707   6.742   1.175   0.202 -0.0809  0.2170  0.5488
 1893ESO      S29708   6.702   1.117   0.075  0.1895  0.1178 -0.0834
 1893ESO     O229709   6.725   0.964   0.109  0.7725  0.4662 -0.5242
 1893ESO    C1a29710   6.857   0.904   0.140  0.5934  0.1268 -0.0862
 1893ESO    H1a29711   6.924   0.980   0.179 -0.3051  2.0944  0.2296
 1893ESO    H1a29712   6.847   0.829   0.218  0.9861  1.1685  1.5918
 1893ESO    C2a29713   6.914   0.839   0.015 -0.5933 -0.3871  0.3056
 1893ESO    H2a29714   7.002   0.786   0.045  1.5988  1.7563  1.3061
 1893ESO    H2a29715   6.945   0.919  -0.049  1.6391  1.5841 -0.1554
 1893ESO    H2a29716   6.838   0.778  -0.030 -0.5491 -0.2047 -1.5977
 1894ESO     O129717   1.265   2.206   3.805 -0.6986  0.1335  0.2100
 1894ESO     O129718   1.168   2.389   3.917 -0.0120  0.1007 -0.3737
 1894ESO     O129719   1.368   2.293   4.006 -0.0779  0.4286 -0.6459
 1894ESO      S29720   1.288   2.321   3.890 -0.4604 -0.0864  0.2488
 1894ESO     O229721   1.382   2.422   3.804  0.3400 -0.4666  0.1069
 1894ESO    C1a29722   1.413   2.555   3.854  0.5040 -0.4129  0.5004
 1894ESO    H1a29723   1.340   2.626   3.827  0.8017 -3.6177  0.4178
 1894ESO    H1a29724   1.425   2.556   3.956  0.4046  0.7785  1.3923
 1894ESO    C2a29725   1.542   2.591   3.782 -0.1085 -0.8505  0.1154
 1894ESO    H2a29726   1.522   2.594   3.674 -1.5828  0.4702  0.1336
 1894ESO    H2a29727   1.618   2.509   3.803 -0.0036 -0.8223  0.4049
 1894ESO    H2a29728   1.572   2.689   3.819 -0.8171  1.5273  1.0745
 1895ESO     O129729   6.333   5.148   6.504 -0.0760 -0.1644  0.1248
 1895ESO     O129730   6.525   5.129   6.382  0.5027  0.1909  0.0170
 1895ESO     O129731   6.296   5.125   6.277  0.1115 -0.3874  0.1040
 1895ESO      S29732   6.387   5.173   6.380 -0.1961  0.2761 -0.1027
 1895ESO     O229733   6.392   5.333   6.361 -0.0354 -0.0992  0.2957
 1895ESO    C1a29734   6.447   5.386   6.240  0.1611 -0.0773  0.4503
 1895ESO    H1a29735   6.441   5.316   6.156 -1.3020  2.6652  1.5029
 1895ESO    H1a29736   6.399   5.477   6.211 -1.5366 -1.5352 -0.2141
 1895ESO    C2a29737   6.587   5.425   6.264 -0.1098 -1.3801 -0.5281
 1895ESO    H2a29738   6.592   5.509   6.337  1.8158  2.3548  1.1912
 1895ESO    H2a29739   6.628   5.461   6.173 -1.1153 -0.5897  2.3829
 1895ESO    H2a29740   6.660   5.348   6.294  1.0873 -0.0102 -1.3254
 1896ESO     O129741   1.694   0.125   1.180  0.1641 -0.3268  0.0418
 1896ESO     O129742   1.838  -0.031   1.067 -0.0693  0.2790  0.1613
 1896ESO     O129743   1.751  -0.079   1.291 -0.0699  0.3125  0.7119
 1896ESO      S29744   1.728  -0.017   1.164 -0.0916  0.2464 -0.1181
 1896ESO     O229745   1.609  -0.093   1.100 -0.3483  0.5391  0.2664
 1896ESO    C1a29746   1.484  -0.073   1.170  1.3111  0.5183  0.1336
 1896ESO    H1a29747   1.506  -0.079   1.277  2.3492  0.7746  1.5327
 1896ESO    H1a29748   1.439   0.023   1.159  2.1413 -1.0527 -3.3002
 1896ESO    C2a29749   1.404  -0.185   1.110 -0.3398 -0.0194 -0.0343
 1896ESO    H2a29750   1.306  -0.192   1.143  0.7314 -1.6237 -2.7409
 1896ESO    H2a29751   1.455  -0.270   1.122  1.7944 -0.7361 -0.0573
 1896ESO    H2a29752   1.396  -0.172   1.002  0.0267 -2.4698  0.4219
 1897ESO     O129753   3.120   3.232   6.169 -0.2508  0.2721  0.2417
 1897ESO     O129754   3.123   3.140   6.386 -0.3214  0.0176 -0.3283
 1897ESO     O129755   2.938   3.096   6.238  0.3914 -0.3086 -0.8501
 1897ESO      S29756   3.077   3.123   6.251 -0.1157 -0.3129 -0.0671
 1897ESO     O229757   3.154   2.996   6.195  0.4850  0.6249 -0.5219
 1897ESO    C1a29758   3.119   2.871   6.261  0.3211 -0.7865 -0.0394
 1897ESO    H1a29759   3.145   2.870   6.364 -2.1403 -0.8542 -2.4797
 1897ESO    H1a29760   3.013   2.850   6.261 -1.3551 -0.1066  0.8395
 1897ESO    C2a29761   3.191   2.760   6.183  0.7977  0.1016 -0.4777
 1897ESO    H2a29762   3.295   2.776   6.179  1.7721 -0.2575  1.4353
 1897ESO    H2a29763   3.171   2.753   6.077 -5.1615  2.9845  2.9482
 1897ESO    H2a29764   3.177   2.666   6.240  0.5311 -2.6809 -1.7823
 1898ESO     O129765   2.669   3.118   5.526  0.1324  0.6399 -0.4705
 1898ESO     O129766   2.876   3.234   5.562  0.0565 -0.2780 -0.1270
 1898ESO     O129767   2.674   3.343   5.616 -0.0906  0.3337 -0.3932
 1898ESO      S29768   2.742   3.215   5.603  0.1551 -0.1598  0.1027
 1898ESO     O229769   2.751   3.153   5.752  0.1772  0.6140 -0.6027
 1898ESO    C1a29770   2.626   3.132   5.825  0.1362 -0.3154  0.0106
 1898ESO    H1a29771   2.545   3.124   5.756  2.3443 -2.0700  1.6768
 1898ESO    H1a29772   2.647   3.042   5.878  1.0350 -0.2640  1.4728
 1898ESO    C2a29773   2.626   3.232   5.939  0.4008 -0.3321 -0.1650
 1898ESO    H2a29774   2.531   3.236   5.997  1.0435  0.3844 -1.9008
 1898ESO    H2a29775   2.646   3.330   5.891 -1.8007 -0.8777 -2.3333
 1898ESO    H2a29776   2.704   3.214   6.017  0.3576 -0.1358  1.0472
 1899ESO     O129777   3.029   6.524   3.366  0.5099 -0.1372  0.1044
 1899ESO     O129778   2.963   6.288   3.327  0.4404  0.1300 -0.2923
 1899ESO     O129779   3.122   6.349   3.485 -0.4620  0.2249  0.0996
 1899ESO      S29780   3.006   6.392   3.420  0.1395 -0.0069  0.1114
 1899ESO     O229781   2.889   6.410   3.524  0.0636 -0.8516 -0.2729
 1899ESO    C1a29782   2.895   6.490   3.647  0.4390  0.3246 -0.7787
 1899ESO    H1a29783   2.963   6.434   3.717  2.7888 -1.7246  1.6068
 1899ESO    H1a29784   2.939   6.590   3.625 -0.1812 -0.4171 -1.5605
 1899ESO    C2a29785   2.749   6.495   3.701  0.0231  0.4621 -0.2779
 1899ESO    H2a29786   2.682   6.522   3.618 -0.9748 -0.5164  1.0022
 1899ESO    H2a29787   2.741   6.565   3.780  1.9152 -2.3345 -2.9341
 1899ESO    H2a29788   2.714   6.392   3.741 -0.6069 -0.8134  1.4526
 1900ESO     O129789   1.762   4.131   2.650  0.5133  0.0398  0.3077
 1900ESO     O129790   1.853   4.327   2.739  0.4856  0.4579  0.1934
 1900ESO     O129791   1.662   4.221   2.846  0.4123  0.3572  0.7046
 1900ESO      S29792   1.786   4.201   2.771  0.3598 -0.3356 -0.0912
 1900ESO     O229793   1.876   4.115   2.856  0.3298 -0.3107 -0.3352
 1900ESO    C1a29794   2.004   4.078   2.802  0.2883  0.4259  0.1121
 1900ESO    H1a29795   2.014   4.096   2.693  0.0821 -2.9890  3.0597
 1900ESO    H1a29796   2.077   4.139   2.861  0.6335  0.8250  1.4983
 1900ESO    C2a29797   2.003   3.927   2.822  0.7884 -0.7980  0.7914
 1900ESO    H2a29798   2.093   3.884   2.775  0.8668 -3.0147  0.3715
 1900ESO    H2a29799   1.910   3.886   2.779  0.9949  1.2272 -0.9972
 1900ESO    H2a29800   1.993   3.895   2.926 -3.0346 -2.2174 -0.8400
 1901ESO     O129801   5.926   1.116   0.128  0.5741  0.4920  0.3681
 1901ESO     O129802   5.986   0.982   0.312 -0.0198 -0.3844 -0.0722
 1901ESO     O129803   6.048   0.910   0.091 -0.2326  0.6132  0.3333
 1901ESO      S29804   6.022   1.021   0.181  0.0986 -0.0410  0.0105
 1901ESO     O229805   6.158   1.105   0.192  0.1314  0.2021 -0.2578
 1901ESO    C1a29806   6.141   1.239   0.260  0.3624 -0.3249  0.3335
 1901ESO    H1a29807   6.153   1.324   0.189  3.6114  1.4218 -0.3951
 1901ESO    H1a29808   6.040   1.253   0.296 -1.0265  0.1456  0.0994
 1901ESO    C2a29809   6.236   1.243   0.373  0.4387  0.7702  0.0425
 1901ESO    H2a29810   6.337   1.255   0.329  1.2088 -0.9482  0.4481
 1901ESO    H2a29811   6.230   1.170   0.458  0.5765  1.2734  0.3675
 1901ESO    H2a29812   6.214   1.329   0.437 -2.2817  0.6761 -0.2810
 1902ESO     O129813   1.765   1.879   4.360  0.1132  0.2574 -0.2205
 1902ESO     O129814   1.655   2.088   4.314 -0.1541 -0.1611 -0.4621
 1902ESO     O129815   1.885   2.055   4.259 -0.1204  0.5971  0.1857
 1902ESO      S29816   1.754   1.993   4.272  0.4192 -0.2861  0.0689
 1902ESO     O229817   1.724   1.935   4.132 -0.1622 -0.5960  0.0523
 1902ESO    C1a29818   1.583   1.890   4.102  0.0849 -0.2607  0.1966
 1902ESO    H1a29819   1.583   1.781   4.131  2.0032  0.6783 -0.8250
 1902ESO    H1a29820   1.505   1.949   4.154 -0.1032  2.0466 -0.5175
 1902ESO    C2a29821   1.559   1.899   3.949  0.3820 -0.1347 -0.6528
 1902ESO    H2a29822   1.653   1.877   3.896 -1.2201  2.8813 -1.8259
 1902ESO    H2a29823   1.521   2.000   3.917 -2.0727  1.1318 -1.1607
 1902ESO    H2a29824   1.488   1.835   3.911 -0.8798  2.0161 -0.9284
 1903ESO     O129825   1.938   4.617   1.369 -0.3565 -0.3466 -0.0020
 1903ESO     O129826   1.849   4.717   1.165 -0.7010 -0.2816  0.1062
 1903ESO     O129827   2.051   4.786   1.261 -0.5449  0.1600  0.1209
 1903ESO      S29828   1.964   4.678   1.242  0.3266  0.3448 -0.1414
 1903ESO     O229829   2.040   4.581   1.151  0.0914  0.1209  0.5008
 1903ESO    C1a29830   2.131   4.476   1.200  0.1751 -0.0448 -0.3432
 1903ESO    H1a29831   2.211   4.515   1.257 -3.0966 -1.3067  1.4170
 1903ESO    H1a29832   2.080   4.426   1.287  1.0242 -0.1672 -1.0303
 1903ESO    C2a29833   2.172   4.383   1.082 -0.0306 -0.4797  0.1198
 1903ESO    H2a29834   2.235   4.429   1.007 -2.5458  1.0420  0.9614
 1903ESO    H2a29835   2.081   4.343   1.036 -1.0568 -2.9167 -1.5189
 1903ESO    H2a29836   2.223   4.290   1.123 -0.4478 -2.4669 -1.9579
 1904ESO     O129837   4.064   3.449   5.338 -0.3663  0.6292  0.4622
 1904ESO     O129838   4.217   3.625   5.323 -0.0979 -0.0052 -0.5421
 1904ESO     O129839   4.110   3.533   5.124  0.3745 -0.5049 -0.3432
 1904ESO      S29840   4.099   3.565   5.264  0.1408 -0.1399 -0.0770
 1904ESO     O229841   3.983   3.669   5.257 -0.1952 -0.3964 -0.6544
 1904ESO    C1a29842   3.955   3.752   5.377 -0.1060 -0.6589 -0.2611
 1904ESO    H1a29843   3.931   3.680   5.449  1.6704  2.1924 -0.3596
 1904ESO    H1a29844   4.044   3.816   5.415  1.3908 -0.4131  1.3311
 1904ESO    C2a29845   3.831   3.841   5.338  0.2579  0.2462 -0.5832
 1904ESO    H2a29846   3.794   3.889   5.427  0.5868 -0.7263 -1.8934
 1904ESO    H2a29847   3.756   3.788   5.293 -1.7310 -0.2929  1.2526
 1904ESO    H2a29848   3.871   3.908   5.269  1.2522 -2.2668  1.4991
 1905ESO     O129849   0.142   1.972   4.694  0.2012  0.0693  0.4832
 1905ESO     O129850  -0.011   2.036   4.859 -0.0414 -0.4324  0.9259
 1905ESO     O129851   0.045   1.803   4.829  0.1904  0.0580  0.8492
 1905ESO      S29852   0.088   1.939   4.820 -0.1451 -0.0631 -0.1111
 1905ESO     O229853   0.207   1.959   4.927 -0.1996  0.1825 -0.2785
 1905ESO    C1a29854   0.306   1.855   4.914 -0.0527  0.0127  1.3495
 1905ESO    H1a29855   0.300   1.803   4.820 -0.3157 -2.0160 -0.3862
 1905ESO    H1a29856   0.404   1.899   4.905  0.7647  1.7354 -0.3482
 1905ESO    C2a29857   0.295   1.761   5.036 -0.1417 -0.0010 -0.1748
 1905ESO    H2a29858   0.285   1.811   5.131 -1.2388 -2.9173  0.8680
 1905ESO    H2a29859   0.372   1.680   5.038 -0.7963 -2.8315  2.4060
 1905ESO    H2a29860   0.203   1.702   5.038  1.9788 -2.0744  2.0696
 1906ESO     O129861   3.747   4.438   5.407 -0.3200  0.6383 -0.1155
 1906ESO     O129862   3.640   4.624   5.497  0.4013 -0.5950  0.3670
 1906ESO     O129863   3.651   4.599   5.264 -0.0331 -0.4569  0.3260
 1906ESO      S29864   3.643   4.534   5.387  0.2219  0.0064 -0.1749
 1906ESO     O229865   3.508   4.459   5.403  0.0300 -0.4144  0.0919
 1906ESO    C1a29866   3.382   4.525   5.377  0.5089 -0.1432  1.1183
 1906ESO    H1a29867   3.319   4.514   5.465 -1.0352  0.3937  1.9673
 1906ESO    H1a29868   3.394   4.628   5.352 -0.5724  0.8614  1.5840
 1906ESO    C2a29869   3.318   4.447   5.267 -0.3121 -0.3127 -0.5390
 1906ESO    H2a29870   3.369   4.471   5.173  5.3522 -1.7039  0.9611
 1906ESO    H2a29871   3.209   4.467   5.267 -0.0407  0.1782  0.0734
 1906ESO    H2a29872   3.330   4.341   5.273 -0.8955  3.5576  0.7322
 1907ESO     O129873   6.148   6.272   2.987  1.0344  0.0835  0.4589
 1907ESO     O129874   6.281   6.464   2.977 -0.1316  0.4910 -0.1348
 1907ESO     O129875   6.378   6.257   3.042  0.6285  0.6219 -0.0394
 1907ESO      S29876   6.279   6.318   2.960  0.1530 -0.3158  0.1462
 1907ESO     O229877   6.311   6.281   2.810 -0.3488  0.0608  0.1430
 1907ESO    C1a29878   6.226   6.328   2.705 -0.1218 -0.7375  0.6408
 1907ESO    H1a29879   6.121   6.346   2.736 -0.5533 -1.2936 -2.7273
 1907ESO    H1a29880   6.255   6.424   2.668 -1.3550  1.2437  0.0878
 1907ESO    C2a29881   6.228   6.239   2.591  0.2845 -0.5998 -0.7745
 1907ESO    H2a29882   6.189   6.295   2.504 -1.5537 -0.0007 -2.2717
 1907ESO    H2a29883   6.162   6.157   2.626 -2.9388  2.1228 -2.8547
 1907ESO    H2a29884   6.323   6.206   2.561 -0.6062  1.8409  1.1187
 1908ESO     O129885   4.547   6.041   5.758 -0.0427  0.3169  0.3209
 1908ESO     O129886   4.550   6.036   5.530 -0.1626 -0.0838  0.0345
 1908ESO     O129887   4.553   5.834   5.646 -0.1289  0.4651 -0.4409
 1908ESO      S29888   4.500   5.968   5.646 -0.3787  0.2552  0.3985
 1908ESO     O229889   4.345   5.963   5.639  0.5657  0.2781 -0.1529
 1908ESO    C1a29890   4.289   5.846   5.562  0.4821  0.0307  0.1862
 1908ESO    H1a29891   4.359   5.816   5.485 -0.9212  0.1947  0.5199
 1908ESO    H1a29892   4.269   5.765   5.635 -1.7150 -0.2066  1.2453
 1908ESO    C2a29893   4.158   5.898   5.497 -0.7493 -0.6005  0.8906
 1908ESO    H2a29894   4.185   5.984   5.432  2.3912  0.0264 -2.2094
 1908ESO    H2a29895   4.088   5.944   5.564  0.0370 -1.2897  2.0852
 1908ESO    H2a29896   4.110   5.818   5.445  0.4921  2.2310 -0.4342
 1909ESO     O129897   0.186   4.954   3.987  0.2564  0.1041  0.3842
 1909ESO     O129898   0.189   5.193   3.980  0.2730 -0.3833 -0.4342
 1909ESO     O129899   0.231   5.067   3.782  0.0463 -0.1472  0.0898
 1909ESO      S29900   0.167   5.071   3.905 -0.1021  0.0992  0.1632
 1909ESO     O229901   0.014   5.068   3.874  0.2622 -0.0506  0.1886
 1909ESO    C1a29902  -0.086   5.096   3.972  0.9477  0.1450  0.4533
 1909ESO    H1a29903  -0.039   5.080   4.072  2.7772 -0.0263  1.6955
 1909ESO    H1a29904  -0.130   5.193   3.959  0.0911 -1.5238  2.7478
 1909ESO    C2a29905  -0.196   4.994   3.937 -0.0086 -0.1110  0.1845
 1909ESO    H2a29906  -0.282   4.998   3.997 -2.0979  2.0796  2.2673
 1909ESO    H2a29907  -0.157   4.889   3.950  0.4885  0.2143 -2.1706
 1909ESO    H2a29908  -0.230   5.009   3.834 -3.3314 -2.0516 -0.9524
 1910ESO     O129909   0.777   1.996   2.160 -0.0474  0.4794  0.4625
 1910ESO     O129910   0.542   1.974   2.217  0.3385 -0.8228 -0.0454
 1910ESO     O129911   0.603   2.071   2.004 -0.7626 -0.3454  0.2652
 1910ESO      S29912   0.639   1.980   2.113 -0.4406  0.7356  0.2653
 1910ESO     O229913   0.638   1.832   2.039  0.3358  0.3537  0.3046
 1910ESO    C1a29914   0.630   1.813   1.890  0.3006  0.7357  0.6089
 1910ESO    H1a29915   0.577   1.716   1.869  1.5555 -2.8442 -0.4861
 1910ESO    H1a29916   0.597   1.897   1.834  1.0194 -2.5308 -2.2628
 1910ESO    C2a29917   0.770   1.813   1.840 -0.6900  0.4613  0.0089
 1910ESO    H2a29918   0.815   1.903   1.859  0.3414 -1.3712  0.3162
 1910ESO    H2a29919   0.794   1.782   1.738  2.6781 -0.5679 -0.5114
 1910ESO    H2a29920   0.835   1.735   1.880  2.0957  0.7784 -0.3509
 1911ESO     O129921   1.866   6.036   3.756 -0.3167  0.0515 -0.0656
 1911ESO     O129922   1.629   6.050   3.774  0.0231 -0.5877  0.2756
 1911ESO     O129923   1.723   5.969   3.575  0.3859 -0.2841 -0.1377
 1911ESO      S29924   1.738   5.979   3.716 -0.4131 -0.2628 -0.0298
 1911ESO     O229925   1.734   5.832   3.776 -0.1390  0.0630  0.0199
 1911ESO    C1a29926   1.633   5.742   3.742  0.2232 -0.8442 -0.6283
 1911ESO    H1a29927   1.543   5.797   3.716  1.1126 -0.3784  0.5803
 1911ESO    H1a29928   1.662   5.689   3.644  0.7152  2.9401 -3.6339
 1911ESO    C2a29929   1.617   5.646   3.863 -0.2481  0.1424 -0.1210
 1911ESO    H2a29930   1.556   5.680   3.946 -0.7500 -0.7155  1.7510
 1911ESO    H2a29931   1.714   5.639   3.911  1.1503 -2.0754 -0.5514
 1911ESO    H2a29932   1.598   5.540   3.834 -1.8824  1.7846  0.2272
 1912ESO     O129933   1.899   0.332   5.582  0.6472  1.0083  0.0970
 1912ESO     O129934   1.824   0.416   5.372  0.2552  0.0312  0.1600
 1912ESO     O129935   1.880   0.177   5.398 -0.4679 -0.3988 -0.4649
 1912ESO      S29936   1.831   0.299   5.457 -0.3087  0.0077  0.0550
 1912ESO     O229937   1.688   0.274   5.510  0.1011 -0.0228  0.1579
 1912ESO    C1a29938   1.582   0.246   5.406  0.3340  0.3807  0.2393
 1912ESO    H1a29939   1.620   0.254   5.300 -0.1554 -0.6055 -0.5963
 1912ESO    H1a29940   1.550   0.145   5.428 -0.6655 -0.6739  1.4071
 1912ESO    C2a29941   1.473   0.351   5.427 -0.1778 -0.2888  0.0900
 1912ESO    H2a29942   1.517   0.451   5.426 -0.6716 -1.2847  0.8504
 1912ESO    H2a29943   1.415   0.329   5.519  0.9445 -1.3110  1.8342
 1912ESO    H2a29944   1.395   0.340   5.344 -2.0362 -1.9585 -0.2855
 1913ESO     O129945   3.124   0.216   3.845  0.1060 -0.0663  0.8390
 1913ESO     O129946   2.896   0.269   3.898 -0.2786 -0.5758  0.3215
 1913ESO     O129947   3.072   0.350   4.037 -0.2379  0.0449  0.0633
 1913ESO      S29948   3.037   0.310   3.900  0.4101  0.2783  0.0186
 1913ESO     O229949   3.053   0.442   3.807 -0.5346  0.1795  0.6156
 1913ESO    C1a29950   2.994   0.562   3.861 -0.1090  0.4334  0.1343
 1913ESO    H1a29951   2.909   0.540   3.912  0.6453 -0.4242 -2.1518
 1913ESO    H1a29952   3.052   0.617   3.932 -0.1826  1.5838  2.5374
 1913ESO    C2a29953   2.964   0.637   3.731  0.0424  0.6034 -0.7444
 1913ESO    H2a29954   2.876   0.591   3.680  0.1791 -0.2400  3.1562
 1913ESO    H2a29955   3.050   0.637   3.664  0.9384 -1.0022  0.5861
 1913ESO    H2a29956   2.938   0.743   3.750  0.3948  0.5833 -3.0570
 1914ESO     O129957   4.009   6.606   6.044 -0.0245  0.5298 -0.4858
 1914ESO     O129958   3.793   6.596   5.943  0.1637 -0.2804 -0.3469
 1914ESO     O129959   3.964   6.451   5.872  0.0376  0.5531 -0.4553
 1914ESO      S29960   3.909   6.522   5.982 -0.1526 -0.2736 -0.0203
 1914ESO     O229961   3.863   6.409   6.079  0.0633  0.3947 -0.5837
 1914ESO    C1a29962   3.970   6.324   6.128 -0.1971  0.4717 -0.0539
 1914ESO    H1a29963   4.028   6.283   6.041  1.0380 -0.6698 -2.4969
 1914ESO    H1a29964   4.028   6.389   6.197  0.6682  4.8855  1.3274
 1914ESO    C2a29965   3.900   6.204   6.199  0.6419 -0.5789  0.0771
 1914ESO    H2a29966   3.839   6.239   6.285 -1.6269 -0.3838 -0.4054
 1914ESO    H2a29967   3.971   6.137   6.237  0.5407  0.9327  0.4897
 1914ESO    H2a29968   3.824   6.158   6.131  1.5042 -3.4451 -1.5956
 1915ESO     O129969   3.269   3.622   2.820  0.0618  0.4103  0.7392
 1915ESO     O129970   3.072   3.470   2.805 -0.4608 -0.2588 -0.4740
 1915ESO     O129971   3.118   3.609   2.996 -0.6816 -0.3820  0.5121
 1915ESO      S29972   3.134   3.591   2.856 -0.2457 -0.9946 -0.0066
 1915ESO     O229973   3.052   3.708   2.788  0.0430 -0.4925  0.6129
 1915ESO    C1a29974   3.079   3.725   2.644  0.1843  0.0307 -0.0276
 1915ESO    H1a29975   3.153   3.809   2.632  0.3761  0.7323 -0.5926
 1915ESO    H1a29976   3.114   3.633   2.601  0.8664 -0.1402 -1.4407
 1915ESO    C2a29977   2.943   3.766   2.577 -0.3743  0.1744  0.2130
 1915ESO    H2a29978   2.863   3.697   2.609 -2.0850  0.5265  0.6752
 1915ESO    H2a29979   2.937   3.761   2.470 -2.0750 -1.8606  0.6596
 1915ESO    H2a29980   2.918   3.868   2.616  0.6692  0.9570  0.8696
 1916ESO     O129981   1.188   0.733   2.125  0.4629 -0.4897 -0.0183
 1916ESO     O129982   1.295   0.685   2.332  0.1847 -0.1089 -0.2221
 1916ESO     O129983   1.406   0.640   2.122  0.2983  0.3263 -0.5949
 1916ESO      S29984   1.313   0.718   2.191  0.1267 -0.3791 -0.4925
 1916ESO     O229985   1.377   0.869   2.194 -0.5961 -0.1537 -0.3830
 1916ESO    C1a29986   1.399   0.930   2.063 -0.7833 -0.3191 -0.3789
 1916ESO    H1a29987   1.449   0.865   1.997 -0.2353  0.4181  2.2389
 1916ESO    H1a29988   1.295   0.951   2.027 -0.1417  0.7543  0.5320
 1916ESO    C2a29989   1.473   1.065   2.081 -0.4022 -0.7181 -0.3346
 1916ESO    H2a29990   1.576   1.043   2.095  0.6893  1.7429  2.3152
 1916ESO    H2a29991   1.434   1.116   2.168  1.3265 -1.6826 -1.6918
 1916ESO    H2a29992   1.463   1.130   1.995  0.2849  0.8779 -1.2806
 1917ESO     O129993   2.872   6.403   6.606 -0.2874  0.4721  0.0501
 1917ESO     O129994   2.884   6.398   6.844 -0.0162 -0.1130  0.3236
 1917ESO     O129995   2.721   6.268   6.721  0.2536  0.1066  0.4487
 1917ESO      S29996   2.852   6.321   6.723 -0.2502 -0.3469  0.0075
 1917ESO     O229997   2.946   6.197   6.711 -0.0404 -0.2782  0.2726
 1917ESO    C1a29998   2.961   6.102   6.819 -0.2085 -0.4498  0.2171
 1917ESO    H1a29999   3.042   6.131   6.885  1.1074  1.2737 -2.6199
 1917ESO    H1a30000   2.863   6.086   6.873 -1.4205  0.9770  1.1659
 1917ESO    C2a30001   2.984   5.968   6.759 -0.0640 -0.5979  0.1236
 1917ESO    H2a30002   2.897   5.904   6.790  0.1175  0.9184  0.6909
 1917ESO    H2a30003   3.079   5.914   6.792 -0.8962  0.8033  0.4418
 1917ESO    H2a30004   2.999   5.970   6.645  1.5520 -1.8977 -0.4876
 1918ESO     O130005   6.010   2.677   5.427 -0.5240  0.4422 -0.2575
 1918ESO     O130006   5.847   2.811   5.544  0.1598 -0.1590 -0.2733
 1918ESO     O130007   5.859   2.824   5.303 -0.5878  0.1748 -0.1517
 1918ESO      S30008   5.881   2.745   5.423 -0.3178  0.1034 -0.4498
 1918ESO     O230009   5.764   2.633   5.413  1.1172 -0.5887  0.3829
 1918ESO    C1a30010   5.767   2.541   5.305 -0.1165 -0.0542 -0.1413
 1918ESO    H1a30011   5.787   2.595   5.215  2.2944  1.6838 -1.2463
 1918ESO    H1a30012   5.851   2.476   5.323 -0.7743 -0.2459  0.7516
 1918ESO    C2a30013   5.640   2.463   5.304 -0.0526 -0.5416  0.3735
 1918ESO    H2a30014   5.640   2.390   5.225  0.7347  1.4804  0.7696
 1918ESO    H2a30015   5.555   2.532   5.280  0.1476 -2.5906 -0.1472
 1918ESO    H2a30016   5.616   2.417   5.403 -0.1499 -0.1854  0.7018
 1919ESO     O130017   1.752   5.369   3.061 -0.3989  0.1608  0.1068
 1919ESO     O130018   1.671   5.243   3.251 -0.2230 -0.0680  0.0705
 1919ESO     O130019   1.813   5.426   3.285 -0.3430 -0.1820  0.0796
 1919ESO      S30020   1.707   5.371   3.197  0.2128 -0.1575 -0.0074
 1919ESO     O230021   1.584   5.460   3.207 -0.1195  0.4048  0.3816
 1919ESO    C1a30022   1.514   5.472   3.330 -0.1677 -0.2934 -0.2782
 1919ESO    H1a30023   1.407   5.467   3.303  0.3147 -1.2063  1.0852
 1919ESO    H1a30024   1.533   5.385   3.394 -3.9369  0.0277 -3.0317
 1919ESO    C2a30025   1.562   5.596   3.405  0.1863  0.6908  0.0235
 1919ESO    H2a30026   1.668   5.608   3.401 -0.1468  1.2652 -3.3280
 1919ESO    H2a30027   1.521   5.602   3.501 -1.0703  0.8458  3.6715
 1919ESO    H2a30028   1.524   5.675   3.350  0.3927 -0.6084  1.2417
 1920ESO     O130029   1.577   3.138   6.286  0.4511  0.9716 -0.0405
 1920ESO     O130030   1.683   2.931   6.353  0.1382  0.2518  0.3096
 1920ESO     O130031   1.661   3.108   6.517 -0.1170  0.4215  0.2901
 1920ESO      S30032   1.607   3.049   6.397  0.0556  0.3788  0.7382
 1920ESO     O230033   1.467   2.986   6.432 -0.6359  0.4401 -0.5184
 1920ESO    C1a30034   1.350   3.067   6.456 -0.5271  0.0539 -0.0278
 1920ESO    H1a30035   1.391   3.167   6.469  1.6834  0.4680  0.8133
 1920ESO    H1a30036   1.293   3.072   6.361 -0.5076  1.3690 -1.8724
 1920ESO    C2a30037   1.268   3.008   6.565  0.1151  0.6939 -0.0833
 1920ESO    H2a30038   1.169   3.048   6.577 -0.2432 -3.0933  0.7369
 1920ESO    H2a30039   1.316   2.996   6.664  0.0747  1.1258  2.8408
 1920ESO    H2a30040   1.264   2.908   6.539 -0.3169  0.2900  1.4419
 1921ESO     O130041   6.147   3.713   2.299 -0.6591  0.5629 -0.2436
 1921ESO     O130042   6.046   3.866   2.141  0.0886  0.2450 -0.4010
 1921ESO     O130043   5.958   3.843   2.369  0.2894 -0.2311  0.5581
 1921ESO      S30044   6.074   3.839   2.281 -0.2750 -0.2585 -0.0451
 1921ESO     O230045   6.170   3.948   2.328  0.1610 -0.0738 -0.0638
 1921ESO    C1a30046   6.108   4.075   2.341 -0.5625  0.7394  0.4990
 1921ESO    H1a30047   6.045   4.083   2.256  1.7593 -0.5240 -0.2398
 1921ESO    H1a30048   6.046   4.081   2.434 -1.6440  0.2493  0.8954
 1921ESO    C2a30049   6.220   4.173   2.346  0.3535 -0.2788  0.1353
 1921ESO    H2a30050   6.181   4.270   2.350  0.0963 -0.8023  0.4694
 1921ESO    H2a30051   6.280   4.173   2.258  1.0153  0.3301  2.4241
 1921ESO    H2a30052   6.293   4.158   2.427 -0.3194 -5.1514  0.8813
 1922ESO     O130053   3.267   5.273   6.078  0.1190  0.9965 -0.3127
 1922ESO     O130054   3.179   5.087   5.951 -0.4737 -0.3365  0.5459
 1922ESO     O130055   3.330   5.231   5.848  0.8353 -0.5295 -0.1919
 1922ESO      S30056   3.291   5.176   5.971 -0.0157  0.0527 -0.0783
 1922ESO     O230057   3.400   5.088   6.032 -0.0636  0.8989  0.0054
 1922ESO    C1a30058   3.523   5.142   6.096  0.4483  0.1576 -0.5076
 1922ESO    H1a30059   3.500   5.229   6.148  0.1741  0.8532  1.1753
 1922ESO    H1a30060   3.561   5.064   6.169  1.3952 -0.7285  2.4728
 1922ESO    C2a30061   3.622   5.165   5.981 -0.4727 -0.6392  0.5823
 1922ESO    H2a30062   3.614   5.266   5.947  0.2004  1.8354 -3.0291
 1922ESO    H2a30063   3.605   5.090   5.899  0.1436 -0.8150  1.1562
 1922ESO    H2a30064   3.721   5.143   6.029  1.2832 -0.0883 -1.8570
 1923ESO     O130065   0.505   5.013   3.390 -0.3237 -0.5888 -0.0499
 1923ESO     O130066   0.370   5.124   3.219 -0.2143  0.2802 -1.1260
 1923ESO     O130067   0.358   5.187   3.447 -1.0197  0.6170 -0.0447
 1923ESO      S30068   0.441   5.135   3.347 -0.1645 -0.3149  0.2477
 1923ESO     O230069   0.550   5.234   3.322  0.1437  0.2346 -0.1677
 1923ESO    C1a30070   0.682   5.193   3.289  0.4598 -0.3836  0.2979
 1923ESO    H1a30071   0.728   5.136   3.374  2.5528 -0.8816 -0.4741
 1923ESO    H1a30072   0.675   5.123   3.210  0.7354  0.1415  0.4815
 1923ESO    C2a30073   0.772   5.309   3.251 -0.0297  0.5170 -0.5414
 1923ESO    H2a30074   0.731   5.366   3.170 -1.2100  1.4750  1.0333
 1923ESO    H2a30075   0.875   5.271   3.223  1.2785  0.2858 -1.7427
 1923ESO    H2a30076   0.785   5.378   3.334 -0.2931  0.7451 -0.3068
 1924ESO     O130077   3.771   6.699   4.562 -0.0723 -0.1945 -0.2891
 1924ESO     O130078   3.573   6.671   4.436 -0.1934  0.1489 -0.8739
 1924ESO     O130079   3.768   6.750   4.323 -0.4530 -0.1761 -0.8400
 1924ESO      S30080   3.715   6.668   4.433  0.1707 -0.2299 -0.1532
 1924ESO     O230081   3.748   6.519   4.397 -0.1204  0.0261 -0.3059
 1924ESO    C1a30082   3.708   6.419   4.492  0.0694 -0.3026  0.2666
 1924ESO    H1a30083   3.710   6.457   4.595  1.0107 -0.2435  2.6950
 1924ESO    H1a30084   3.622   6.356   4.455  0.7727  0.9191 -1.4987
 1924ESO    C2a30085   3.821   6.324   4.481 -0.2040 -0.1498  0.0666
 1924ESO    H2a30086   3.833   6.288   4.379  0.2734  0.8473  1.9630
 1924ESO    H2a30087   3.819   6.248   4.557 -1.0639  3.7783  1.2298
 1924ESO    H2a30088   3.915   6.372   4.496  1.3571 -1.8976  0.4808
 1925ESO     O130089   4.344   6.145   6.070 -0.1652 -0.2627  0.6558
 1925ESO     O130090   4.275   5.976   6.231  0.5833  0.4166 -0.4993
 1925ESO     O130091   4.507   6.011   6.182  0.5897  0.5558  0.4887
 1925ESO      S30092   4.377   6.072   6.190 -0.5506  0.1404 -0.0807
 1925ESO     O230093   4.380   6.182   6.300 -0.3672 -0.2092  0.1258
 1925ESO    C1a30094   4.274   6.270   6.319  0.2750 -0.9923 -0.1689
 1925ESO    H1a30095   4.289   6.359   6.246 -0.5255  1.6719  0.5366
 1925ESO    H1a30096   4.179   6.218   6.291  0.5242  1.4793  1.7068
 1925ESO    C2a30097   4.283   6.304   6.466 -0.0126 -0.1607  0.0545
 1925ESO    H2a30098   4.300   6.214   6.519  0.5374  3.7493  0.1445
 1925ESO    H2a30099   4.187   6.351   6.492 -3.3960  0.5229 -2.8222
 1925ESO    H2a30100   4.358   6.377   6.487  2.0755  3.0069  0.6723
 1926ESO     O130101   1.134   3.431   1.438 -0.9063 -0.4893  0.4736
 1926ESO     O130102   0.987   3.608   1.368 -0.2344  0.4910  0.2614
 1926ESO     O130103   1.068   3.598   1.591 -0.0459 -0.0780  0.1137
 1926ESO      S30104   1.095   3.565   1.452  0.0391  0.2724 -0.2131
 1926ESO     O230105   1.210   3.668   1.404 -0.0046 -0.0953  0.1772
 1926ESO    C1a30106   1.262   3.665   1.266  0.1089 -0.2679 -0.6939
 1926ESO    H1a30107   1.242   3.573   1.204  0.0769 -0.9065 -1.6243
 1926ESO    H1a30108   1.204   3.742   1.211  1.6763  0.1125  0.7121
 1926ESO    C2a30109   1.401   3.731   1.265  0.3021  0.2216 -0.6144
 1926ESO    H2a30110   1.470   3.658   1.299 -1.4575  1.9426  2.5498
 1926ESO    H2a30111   1.423   3.814   1.331  0.4844  2.9405 -0.9323
 1926ESO    H2a30112   1.445   3.749   1.171  2.3657  0.4431  2.2260
 1927ESO     O130113   6.403   6.470   5.871 -0.7994 -0.2389 -0.0754
 1927ESO     O130114   6.561   6.303   5.936  0.5877  0.5482 -0.5621
 1927ESO     O130115   6.543   6.352   5.701 -0.2391  0.1834  0.1682
 1927ESO      S30116   6.531   6.408   5.840  0.1596  0.4171  0.0964
 1927ESO     O230117   6.650   6.514   5.861 -0.0686  0.1480 -0.3163
 1927ESO    C1a30118   6.675   6.612   5.757  0.4953 -0.2764  0.7983
 1927ESO    H1a30119   6.709   6.551   5.663 -2.0611  0.4382 -1.9419
 1927ESO    H1a30120   6.580   6.667   5.741 -1.5031 -3.8462 -0.2645
 1927ESO    C2a30121   6.799   6.689   5.817  0.4846 -0.0506 -0.0041
 1927ESO    H2a30122   6.814   6.776   5.749 -0.0846  1.9156  0.1714
 1927ESO    H2a30123   6.886   6.626   5.823 -1.0332  1.0372 -2.1919
 1927ESO    H2a30124   6.776   6.736   5.914  0.5572  1.0388 -2.0707
 1928ESO     O130125   5.770   0.502   0.088  0.2908  0.0537  0.8093
 1928ESO     O130126   5.712   0.501   0.320 -0.2415  0.4757  0.1207
 1928ESO     O130127   5.581   0.631   0.168  0.7519 -0.1499 -0.1481
 1928ESO      S30128   5.664   0.516   0.184 -0.1156 -0.0553 -0.2343
 1928ESO     O230129   5.566   0.400   0.172 -0.1119  0.1549  0.2907
 1928ESO    C1a30130   5.513   0.375   0.038  0.2522  0.1529 -0.4295
 1928ESO    H1a30131   5.416   0.426   0.022 -2.2999  0.8260 -0.5754
 1928ESO    H1a30132   5.591   0.403  -0.029  0.5483 -2.0169 -0.9508
 1928ESO    C2a30133   5.494   0.228   0.034 -0.0095 -0.4336 -0.8196
 1928ESO    H2a30134   5.517   0.189  -0.067 -0.2267 -0.1157 -1.5693
 1928ESO    H2a30135   5.395   0.204   0.059  2.7124  0.2881  0.2975
 1928ESO    H2a30136   5.565   0.185   0.098 -1.3508 -0.7690  1.0089
 1929ESO     O130137   4.732   0.395   3.971 -0.2402 -0.7639  0.1113
 1929ESO     O130138   4.965   0.401   4.027 -0.3656 -0.0889 -0.5061
 1929ESO     O130139   4.839   0.188   3.996  0.7041 -0.3143  0.0778
 1929ESO      S30140   4.859   0.330   3.961 -0.5618  0.1869  0.2787
 1929ESO     O230141   4.897   0.332   3.806 -0.5731 -0.6391  0.4098
 1929ESO    C1a30142   5.025   0.276   3.764 -0.0054  0.6137 -0.1813
 1929ESO    H1a30143   5.102   0.318   3.827 -0.8995 -1.5441 -1.4306
 1929ESO    H1a30144   5.022   0.173   3.780  0.8096  0.5432  0.2213
 1929ESO    C2a30145   5.038   0.315   3.623 -0.1260  0.4342  0.0856
 1929ESO    H2a30146   4.951   0.279   3.561 -2.8978 -0.0203 -0.6310
 1929ESO    H2a30147   5.123   0.268   3.581 -3.7065  2.3223 -0.4314
 1929ESO    H2a30148   5.039   0.425   3.606 -1.4543  0.1443 -0.2305
 1930ESO     O130149   0.117   5.468   6.376  0.6525  0.0886  0.5032
 1930ESO     O130150   0.301   5.585   6.465 -0.6035  0.6014 -0.2197
 1930ESO     O130151   0.260   5.366   6.536 -0.3343 -0.4934 -0.2570
 1930ESO      S30152   0.247   5.457   6.429 -0.0226  0.0601  0.2154
 1930ESO     O230153   0.337   5.401   6.315  0.6695  0.6343 -0.2799
 1930ESO    C1a30154   0.298   5.288   6.232  0.5576 -0.8826  0.3964
 1930ESO    H1a30155   0.347   5.197   6.264 -3.5432 -0.2025  2.1367
 1930ESO    H1a30156   0.190   5.272   6.236 -1.2059  1.0142 -1.4274
 1930ESO    C2a30157   0.342   5.329   6.090 -0.2474  0.2047 -0.0196
 1930ESO    H2a30158   0.320   5.435   6.079 -0.9343 -0.3247 -0.7660
 1930ESO    H2a30159   0.299   5.275   6.009  1.4250  0.9602  1.6626
 1930ESO    H2a30160   0.456   5.333   6.087  0.4542 -0.3927  0.0659
 1931ESO     O130161   1.541   6.476   1.894 -0.1426 -0.1084  0.1796
 1931ESO     O130162   1.459   6.302   1.735 -0.7931 -0.2390 -0.6606
 1931ESO     O130163   1.562   6.243   1.943  0.4123  0.1035  0.2410
 1931ESO      S30164   1.488   6.343   1.874  0.0757  0.1789 -0.2164
 1931ESO     O230165   1.342   6.349   1.955  0.3302 -0.2158 -0.9132
 1931ESO    C1a30166   1.271   6.225   1.988 -0.3471  0.6653  0.3036
 1931ESO    H1a30167   1.310   6.138   1.922 -0.8928  0.2074 -2.4238
 1931ESO    H1a30168   1.290   6.198   2.092  3.6888  2.0241 -1.3226
 1931ESO    C2a30169   1.123   6.258   1.965  0.0098  0.4559  0.3115
 1931ESO    H2a30170   1.116   6.293   1.861  2.2068  0.3841 -1.9949
 1931ESO    H2a30171   1.086   6.335   2.030 -2.4400  1.7051  3.2388
 1931ESO    H2a30172   1.058   6.173   1.987 -3.1657  2.5075  1.3537
 1932ESO     O130173   4.898   2.631   0.545  0.2386  0.3500  0.2060
 1932ESO     O130174   5.139   2.635   0.566  0.1487  0.8652  0.3954
 1932ESO     O130175   5.011   2.432   0.614  0.2714 -0.0592  0.2635
 1932ESO      S30176   5.020   2.556   0.543  0.2191  0.3349 -0.1853
 1932ESO     O230177   5.032   2.509   0.391 -0.2980  0.1440  0.2927
 1932ESO    C1a30178   4.939   2.406   0.343 -0.0623 -0.1587  0.2498
 1932ESO    H1a30179   4.938   2.321   0.411  1.2456 -0.3782 -0.3732
 1932ESO    H1a30180   4.841   2.452   0.341  1.6746 -1.0898  0.3698
 1932ESO    C2a30181   4.976   2.362   0.204  0.0801  0.3472  0.4836
 1932ESO    H2a30182   4.952   2.439   0.136  0.7647  0.4070  1.6331
 1932ESO    H2a30183   4.930   2.272   0.164  0.6710 -2.0019  0.3808
 1932ESO    H2a30184   5.080   2.353   0.195  1.2849 -0.0462 -2.0194
 1933ESO     O130185   5.232   3.392   4.205 -0.1277 -0.8469  0.5073
 1933ESO     O130186   5.375   3.240   4.324  0.7220 -0.5751  0.3061
 1933ESO     O130187   5.445   3.469   4.261  0.0230  0.3626  0.1530
 1933ESO      S30188   5.340   3.380   4.299  0.0180 -0.2139 -0.1035
 1933ESO     O230189   5.288   3.439   4.436 -0.0562 -0.1596 -0.6469
 1933ESO    C1a30190   5.378   3.456   4.542  0.8109 -0.3540 -0.1750
 1933ESO    H1a30191   5.462   3.396   4.524 -0.2978 -0.3425 -0.8836
 1933ESO    H1a30192   5.410   3.558   4.552 -0.8362 -2.0425 -0.2995
 1933ESO    C2a30193   5.306   3.417   4.667  0.4158  0.1393  0.4735
 1933ESO    H2a30194   5.198   3.452   4.677 -1.5796 -0.3262 -1.5641
 1933ESO    H2a30195   5.361   3.454   4.751  3.4899  0.4088 -2.6627
 1933ESO    H2a30196   5.300   3.315   4.677  0.9300  1.9614 -3.0845
 1934ESO     O130197   6.587   3.736   5.944 -0.1957 -0.1717 -0.3765
 1934ESO     O130198   6.769   3.696   6.095  0.2653 -0.4458  0.5374
 1934ESO     O130199   6.796   3.861   5.924  0.2080 -0.2783  0.6239
 1934ESO      S30200   6.701   3.792   6.009 -0.3080  0.4672  0.0267
 1934ESO     O230201   6.646   3.903   6.099  0.3732  0.1211  0.2086
 1934ESO    C1a30202   6.527   3.880   6.180  0.0233  0.0960 -0.2622
 1934ESO    H1a30203   6.448   3.844   6.121  0.2801 -0.6357  1.6868
 1934ESO    H1a30204   6.543   3.811   6.262 -3.1467 -0.3892  0.5168
 1934ESO    C2a30205   6.481   4.019   6.230 -0.0299  0.6527  0.4259
 1934ESO    H2a30206   6.524   4.028   6.324 -0.7169 -1.2401  0.3010
 1934ESO    H2a30207   6.378   4.022   6.237  1.7613  2.0361  0.6392
 1934ESO    H2a30208   6.523   4.098   6.165  0.9034 -2.2125  0.4614
 1935ESO     O130209   5.238   5.468   5.483 -0.6855 -0.1253  0.0439
 1935ESO     O130210   5.372   5.572   5.314 -0.1715 -0.3201 -1.1236
 1935ESO     O130211   5.250   5.696   5.485  0.4961  0.5658 -0.6449
 1935ESO      S30212   5.325   5.580   5.450  0.0337  0.1663 -0.1362
 1935ESO     O230213   5.449   5.570   5.550  0.0158 -0.0035 -0.2822
 1935ESO    C1a30214   5.413   5.559   5.690 -0.3989 -0.8210 -0.5726
 1935ESO    H1a30215   5.310   5.595   5.709 -0.8572 -1.2434 -0.7880
 1935ESO    H1a30216   5.419   5.449   5.713 -0.9005  0.6687 -0.4677
 1935ESO    C2a30217   5.511   5.647   5.756 -0.0098  0.1882  0.6065
 1935ESO    H2a30218   5.535   5.737   5.692 -1.0676  1.5010 -0.2052
 1935ESO    H2a30219   5.603   5.594   5.776  0.9081 -1.4798  0.1142
 1935ESO    H2a30220   5.464   5.681   5.853  0.1614  0.9019  1.7684
 1936ESO     O130221   5.532   3.833   2.973 -0.5164  0.1215 -0.6669
 1936ESO     O130222   5.583   3.596   3.007  0.2899  0.2867  0.4221
 1936ESO     O130223   5.616   3.697   2.799 -0.4326 -0.0692 -0.4736
 1936ESO      S30224   5.616   3.718   2.935 -0.0204 -0.1159 -0.3766
 1936ESO     O230225   5.760   3.746   2.983 -0.0310  0.0620 -0.1612
 1936ESO    C1a30226   5.782   3.781   3.126 -0.0351 -0.9972 -0.3462
 1936ESO    H1a30227   5.748   3.885   3.140 -2.6288 -0.1276 -1.1072
 1936ESO    H1a30228   5.726   3.709   3.188 -0.1652 -1.1300 -2.4892
 1936ESO    C2a30229   5.934   3.773   3.134  0.2049  0.3687 -0.5666
 1936ESO    H2a30230   5.973   3.845   3.062 -0.3707  0.6629 -0.9110
 1936ESO    H2a30231   5.960   3.667   3.117  0.0696  0.4240  2.1877
 1936ESO    H2a30232   5.973   3.804   3.231  2.2865 -0.8979  0.1100
 1937ESO     O130233   3.570   4.700   4.609 -0.9139 -0.0125  0.2337
 1937ESO     O130234   3.342   4.755   4.590  0.0376 -0.5186  0.4412
 1937ESO     O130235   3.427   4.677   4.798 -0.0991 -0.6702 -0.1042
 1937ESO      S30236   3.453   4.747   4.677  0.0164  0.1230  0.2688
 1937ESO     O230237   3.473   4.894   4.730  0.1528 -0.0595  0.4112
 1937ESO    C1a30238   3.534   4.995   4.646 -0.4208 -0.7735  1.1911
 1937ESO    H1a30239   3.616   4.948   4.588 -0.3142 -1.9434  0.5079
 1937ESO    H1a30240   3.463   5.020   4.572  0.2319 -0.6921 -1.1679
 1937ESO    C2a30241   3.579   5.124   4.720  0.2354 -0.1397 -0.2249
 1937ESO    H2a30242   3.659   5.097   4.799 -2.5154  0.9033 -0.3317
 1937ESO    H2a30243   3.503   5.175   4.777  1.2874 -0.3517  0.5887
 1937ESO    H2a30244   3.610   5.202   4.656  0.1497  0.1691  1.1302
 1938ESO     O130245   6.606   3.685   5.173 -0.0908 -0.1044  0.6505
 1938ESO     O130246   6.663   3.707   5.402 -0.4321  0.3357 -0.1084
 1938ESO     O130247   6.816   3.588   5.247 -0.3179 -0.2976 -0.4787
 1938ESO      S30248   6.714   3.694   5.266 -0.1026  0.1754  0.2525
 1938ESO     O230249   6.798   3.825   5.235  0.3021 -0.3824  0.1578
 1938ESO    C1a30250   6.734   3.958   5.246 -0.2036  0.2998  0.4089
 1938ESO    H1a30251   6.673   3.972   5.163 -1.1432  2.3424  1.7895
 1938ESO    H1a30252   6.671   3.965   5.339  1.3572 -0.5219  1.4110
 1938ESO    C2a30253   6.849   4.059   5.251 -0.5366  0.8943  0.0506
 1938ESO    H2a30254   6.817   4.163   5.240 -0.8237 -1.7737 -0.3690
 1938ESO    H2a30255   6.918   4.048   5.167 -0.6501  1.8551  0.7118
 1938ESO    H2a30256   6.902   4.043   5.341  2.7915  0.4239 -0.9925
 1939ESO     O130257   4.230   4.465   3.097 -0.0582  0.3023 -0.1385
 1939ESO     O130258   4.201   4.401   2.872  0.0628  0.2941  0.2533
 1939ESO     O130259   4.406   4.355   2.979 -0.2224  0.1870 -0.3924
 1939ESO      S30260   4.261   4.369   2.996 -0.5003  0.0081  0.0050
 1939ESO     O230261   4.204   4.228   3.048  0.0484 -0.2251 -0.6454
 1939ESO    C1a30262   4.284   4.141   3.128  0.1832 -0.0477  0.8462
 1939ESO    H1a30263   4.367   4.105   3.068  1.2297  1.6118 -1.3311
 1939ESO    H1a30264   4.324   4.198   3.216 -1.0055 -1.0845 -0.8559
 1939ESO    C2a30265   4.193   4.026   3.164  0.1216 -0.1401  0.1371
 1939ESO    H2a30266   4.250   3.953   3.211  1.0661  5.0379 -0.0736
 1939ESO    H2a30267   4.147   3.984   3.075  0.1153  1.5138 -2.7802
 1939ESO    H2a30268   4.115   4.066   3.232 -1.5983 -0.0603  1.0623
 1940ESO     O130269   5.545   2.362   0.273  0.3589 -0.3293 -0.3697
 1940ESO     O130270   5.463   2.212   0.452 -0.2311  0.3902 -0.2320
 1940ESO     O130271   5.388   2.185   0.224 -0.2159 -0.0676 -0.2002
 1940ESO      S30272   5.500   2.231   0.310 -0.2216  0.4406 -0.1078
 1940ESO     O230273   5.618   2.130   0.282 -0.7919  1.1085 -0.8638
 1940ESO    C1a30274   5.691   2.118   0.152  0.9477 -0.3632 -0.7942
 1940ESO    H1a30275   5.615   2.128   0.073  0.8588 -1.8946  1.2042
 1940ESO    H1a30276   5.764   2.203   0.146  0.1529  1.6032 -1.3270
 1940ESO    C2a30277   5.747   1.979   0.145 -0.7888  0.1905 -0.0320
 1940ESO    H2a30278   5.813   1.953   0.061  1.2691  0.7383 -0.7632
 1940ESO    H2a30279   5.665   1.900   0.160  0.8283  1.8205 -2.4268
 1940ESO    H2a30280   5.825   1.971   0.225  2.5379  0.5618  1.1905
 1941ESO     O130281   3.517   3.027   2.609  0.7548 -0.0005 -0.2415
 1941ESO     O130282   3.510   2.843   2.751 -0.2644  0.2789 -0.9323
 1941ESO     O130283   3.698   2.989   2.767 -0.1936 -0.0519 -0.3443
 1941ESO      S30284   3.560   2.973   2.734 -0.1321 -0.2665  0.0245
 1941ESO     O230285   3.494   3.072   2.838 -0.3699 -0.0969 -0.3077
 1941ESO    C1a30286   3.349   3.085   2.853  0.2885  0.2600 -0.0831
 1941ESO    H1a30287   3.298   3.076   2.758 -4.0787 -0.3000 -1.9038
 1941ESO    H1a30288   3.307   3.003   2.922  0.7145 -2.9404  1.3381
 1941ESO    C2a30289   3.319   3.225   2.900 -0.2804  0.2167  0.2718
 1941ESO    H2a30290   3.221   3.253   2.881  1.7605  0.7696  2.5776
 1941ESO    H2a30291   3.376   3.290   2.839 -0.0019  1.1657  2.7033
 1941ESO    H2a30292   3.353   3.248   3.003  2.5777  0.8706  1.0043
 1942ESO     O130293   2.315   1.624   4.400 -0.2793  0.6953 -1.0176
 1942ESO     O130294   2.415   1.423   4.485 -0.5793 -0.4077 -0.1268
 1942ESO     O130295   2.489   1.636   4.564 -0.0482 -0.4008  0.2887
 1942ESO      S30296   2.381   1.559   4.511  0.0782  0.3662 -0.0109
 1942ESO     O230297   2.283   1.555   4.629 -0.3364  0.1178  0.2614
 1942ESO    C1a30298   2.324   1.500   4.756  1.3653  0.0607 -0.3585
 1942ESO    H1a30299   2.409   1.429   4.758  1.5520 -1.8493 -1.4482
 1942ESO    H1a30300   2.343   1.583   4.818 -1.6551 -1.7196 -2.8878
 1942ESO    C2a30301   2.199   1.435   4.807  0.1753 -0.2327  0.2970
 1942ESO    H2a30302   2.219   1.421   4.913  0.3070 -2.1220  3.0194
 1942ESO    H2a30303   2.180   1.338   4.753  1.9219 -0.5848  2.2132
 1942ESO    H2a30304   2.107   1.500   4.795 -1.4683  0.2187  0.9310
 1943ESO     O130305   0.529   0.249   3.484 -0.0146  0.3345 -0.2163
 1943ESO     O130306   0.692   0.310   3.312  0.3266  0.3196  0.0620
 1943ESO     O130307   0.502   0.440   3.349 -0.4454  0.2344 -0.3144
 1943ESO      S30308   0.595   0.354   3.411  0.3167  0.1242 -0.0081
 1943ESO     O230309   0.681   0.441   3.523 -0.1811  0.2069  0.6876
 1943ESO    C1a30310   0.614   0.520   3.622 -0.5511  0.0457  0.1435
 1943ESO    H1a30311   0.679   0.607   3.638  1.5208 -0.6201  1.0524
 1943ESO    H1a30312   0.523   0.558   3.582 -1.5049 -0.5448  0.8702
 1943ESO    C2a30313   0.582   0.441   3.749 -0.1669  0.5817 -0.2926
 1943ESO    H2a30314   0.557   0.337   3.732  1.8159 -0.6288  1.9906
 1943ESO    H2a30315   0.508   0.479   3.809  3.7809 -2.0301 -0.2127
 1943ESO    H2a30316   0.676   0.436   3.808  0.1824  0.3215  0.8875
 1944ESO     O130317   0.641   0.342   6.254 -0.3050 -0.3630 -0.4654
 1944ESO     O130318   0.592   0.416   6.036 -0.4713  0.1217  0.5975
 1944ESO     O130319   0.673   0.180   6.078  0.0828 -0.4370 -0.4298
 1944ESO      S30320   0.596   0.297   6.121  0.4625  0.3681 -0.0553
 1944ESO     O230321   0.453   0.247   6.137  0.6393 -0.4187 -0.4383
 1944ESO    C1a30322   0.369   0.192   6.022 -0.3215 -0.1373  0.0829
 1944ESO    H1a30323   0.282   0.245   6.010 -0.6006  0.8948  1.3166
 1944ESO    H1a30324   0.426   0.196   5.924  0.9081 -1.7285 -1.7667
 1944ESO    C2a30325   0.310   0.055   6.055  0.3142 -0.1682  0.3168
 1944ESO    H2a30326   0.248   0.023   5.978 -0.2609  1.3133  0.4318
 1944ESO    H2a30327   0.240   0.061   6.138  0.7985  2.2030  0.6643
 1944ESO    H2a30328   0.393  -0.013   6.062  1.0657 -1.4569  2.6167
 1945ESO     O130329   6.028   3.331   2.506  0.8216  0.1556  0.0662
 1945ESO     O130330   5.987   3.122   2.621 -0.3712  0.0235  0.7891
 1945ESO     O130331   5.851   3.188   2.434  0.2480  0.2417 -0.6043
 1945ESO      S30332   5.982   3.194   2.494  0.0043 -0.1201 -0.2185
 1945ESO     O230333   6.086   3.122   2.404 -0.3131 -0.5630 -0.1647
 1945ESO    C1a30334   6.068   3.147   2.266  0.2780  0.4349  0.5378
 1945ESO    H1a30335   5.980   3.083   2.231  1.6051 -0.0549 -0.0363
 1945ESO    H1a30336   6.054   3.252   2.246 -1.9275 -0.9256 -2.6763
 1945ESO    C2a30337   6.194   3.102   2.193 -0.4005  0.8269  0.2727
 1945ESO    H2a30338   6.280   3.161   2.222 -1.4090  3.0846 -2.3627
 1945ESO    H2a30339   6.182   3.114   2.088 -2.5513 -0.9005  2.5384
 1945ESO    H2a30340   6.218   2.993   2.202  1.8998  0.0083 -0.8413
 1946ESO     O130341   1.527   5.773   0.442  0.2535  0.8893  0.6826
 1946ESO     O130342   1.563   5.642   0.639  0.0618  0.2055 -0.4669
 1946ESO     O130343   1.714   5.811   0.575  0.1632 -0.8014 -1.0538
 1946ESO      S30344   1.580   5.769   0.575  0.3457  0.0263  0.0365
 1946ESO     O230345   1.500   5.875   0.663  0.3285 -0.2575  0.1888
 1946ESO    C1a30346   1.357   5.849   0.672 -0.7054  0.3189  0.2184
 1946ESO    H1a30347   1.350   5.743   0.639  0.6987 -1.5256 -1.7097
 1946ESO    H1a30348   1.342   5.852   0.776  0.5952 -1.0225 -3.5761
 1946ESO    C2a30349   1.280   5.950   0.594  0.2621  0.1040 -0.2453
 1946ESO    H2a30350   1.324   5.964   0.492 -0.9472 -1.6417  1.3513
 1946ESO    H2a30351   1.279   6.046   0.644  0.4064  1.9051  0.5666
 1946ESO    H2a30352   1.180   5.907   0.584  0.1695 -1.3257 -0.2189
 1947ESO     O130353   0.257   1.852   2.431  0.1863  0.9026 -0.0699
 1947ESO     O130354   0.353   1.657   2.540 -0.1158  0.5265 -0.6197
 1947ESO     O130355   0.365   1.878   2.648  0.7592  0.3825  0.0781
 1947ESO      S30356   0.295   1.787   2.554 -0.5492  0.0106 -0.0031
 1947ESO     O230357   0.161   1.756   2.630  0.4468  0.2014  0.1080
 1947ESO    C1a30358   0.049   1.844   2.620  0.5614  0.1569 -0.2312
 1947ESO    H1a30359   0.080   1.949   2.645  2.1502  0.5479  0.7475
 1947ESO    H1a30360   0.007   1.835   2.527  0.4440  1.8274 -2.9037
 1947ESO    C2a30361  -0.048   1.793   2.726 -0.3111 -0.3686  0.1683
 1947ESO    H2a30362  -0.147   1.797   2.681  0.9571 -1.1413 -0.1275
 1947ESO    H2a30363  -0.036   1.857   2.803 -3.1526  0.4358 -0.2269
 1947ESO    H2a30364  -0.028   1.692   2.765 -1.1603  1.8960  1.0204
 1948ESO     O130365   5.692   3.195   0.853 -0.2206 -0.1553  0.2094
 1948ESO     O130366   5.813   3.400   0.820  0.5926  0.8638 -0.0447
 1948ESO     O130367   5.897   3.239   0.973  0.2261 -0.5914 -0.6296
 1948ESO      S30368   5.825   3.263   0.854  0.0361 -0.2621 -0.0486
 1948ESO     O230369   5.904   3.198   0.738  0.0716  0.6215  0.8033
 1948ESO    C1a30370   5.943   3.059   0.746  0.9848 -0.0121 -0.1113
 1948ESO    H1a30371   6.049   3.045   0.738 -3.1537  1.1695 -1.0757
 1948ESO    H1a30372   5.918   3.028   0.847 -1.0523  1.7179 -1.9734
 1948ESO    C2a30373   5.861   2.987   0.643 -0.1498 -0.2869 -0.2493
 1948ESO    H2a30374   5.899   3.015   0.542  1.1769  1.4725 -2.8435
 1948ESO    H2a30375   5.756   3.016   0.654  1.9539 -1.0269 -0.6017
 1948ESO    H2a30376   5.879   2.881   0.668  0.4092 -3.5051  0.6512
 1949ESO     O130377   2.806   2.786   3.900 -0.4954 -0.0758  0.3273
 1949ESO     O130378   2.987   2.708   4.045 -0.7837  0.2074 -1.0203
 1949ESO     O130379   2.997   2.926   3.949 -0.0469 -0.6199 -0.0345
 1949ESO      S30380   2.911   2.819   3.998  0.4565 -0.0205  0.2991
 1949ESO     O230381   2.842   2.875   4.128 -0.4569  0.0305  0.2381
 1949ESO    C1a30382   2.735   2.969   4.128  0.0271 -0.5286  0.0267
 1949ESO    H1a30383   2.776   3.058   4.078 -0.6213  1.2146  0.2029
 1949ESO    H1a30384   2.639   2.929   4.081  0.6677 -0.8896 -0.0117
 1949ESO    C2a30385   2.713   2.997   4.272 -0.6565  0.3204 -0.4628
 1949ESO    H2a30386   2.666   2.913   4.321  1.8100 -0.8728 -1.1037
 1949ESO    H2a30387   2.648   3.088   4.285 -2.0368  0.8989  0.3427
 1949ESO    H2a30388   2.802   3.021   4.323  1.5781  0.1119  0.5304
 1950ESO     O130389   6.084   2.507   4.048  0.1380 -0.4484  0.3860
 1950ESO     O130390   6.184   2.376   3.868  0.0775 -0.3332  0.1844
 1950ESO     O130391   5.956   2.345   3.934  0.3679 -0.2212  0.0596
 1950ESO      S30392   6.064   2.439   3.922 -0.1587  0.3132 -0.8590
 1950ESO     O230393   6.019   2.542   3.825  0.5504  0.1123 -0.3392
 1950ESO    C1a30394   6.005   2.501   3.688 -0.0560 -0.9291 -0.3672
 1950ESO    H1a30395   6.102   2.468   3.655  3.6734 -0.2903 -0.3636
 1950ESO    H1a30396   5.927   2.428   3.671 -3.9701  0.8320 -0.5305
 1950ESO    C2a30397   5.999   2.631   3.612 -0.5412  0.3726 -0.2386
 1950ESO    H2a30398   5.985   2.606   3.509 -0.3160  2.5937  1.7631
 1950ESO    H2a30399   6.089   2.682   3.634  1.5049 -1.3677  2.8142
 1950ESO    H2a30400   5.924   2.692   3.652  1.4740  0.1693  0.8795
 1951ESO     O130401   2.636   5.796   6.196 -0.1477 -0.2424  0.4357
 1951ESO     O130402   2.488   5.948   6.307  0.1820 -0.3123  0.0007
 1951ESO     O130403   2.499   5.947   6.074 -0.0337  0.1107 -0.1248
 1951ESO      S30404   2.508   5.866   6.189  0.0466  0.2810  0.2324
 1951ESO     O230405   2.412   5.755   6.167  0.3811  0.2192  0.0690
 1951ESO    C1a30406   2.377   5.668   6.276  0.5520 -0.2152  0.0498
 1951ESO    H1a30407   2.424   5.574   6.261 -2.5438 -2.0782 -2.0592
 1951ESO    H1a30408   2.408   5.713   6.365  0.3481 -2.2887  0.9231
 1951ESO    C2a30409   2.225   5.641   6.273 -0.7163  0.9625  0.4722
 1951ESO    H2a30410   2.170   5.734   6.269  0.6571 -1.6767 -0.9349
 1951ESO    H2a30411   2.187   5.590   6.362 -0.3938  0.7865  1.7229
 1951ESO    H2a30412   2.199   5.575   6.191  2.4158  0.1145  1.2567
 1952ESO     O130413   6.493   4.926   5.527 -0.9642 -0.4274 -0.3986
 1952ESO     O130414   6.408   4.949   5.307 -0.0944  0.4528  0.0753
 1952ESO     O130415   6.533   4.754   5.363 -0.1133 -0.0639 -0.0010
 1952ESO      S30416   6.444   4.855   5.413  0.2994  0.2930  0.0109
 1952ESO     O230417   6.320   4.772   5.457 -0.1913 -0.5154 -0.3731
 1952ESO    C1a30418   6.235   4.803   5.568  0.3599 -0.1850 -0.2533
 1952ESO    H1a30419   6.220   4.713   5.628 -1.9557 -1.4844 -0.0628
 1952ESO    H1a30420   6.288   4.880   5.633  0.0387 -0.5880  2.1749
 1952ESO    C2a30421   6.093   4.837   5.529  0.3611 -1.1082 -0.3543
 1952ESO    H2a30422   6.027   4.839   5.615 -1.9131 -0.9970  4.1926
 1952ESO    H2a30423   6.046   4.757   5.464  2.0125  1.3400 -2.3739
 1952ESO    H2a30424   6.088   4.930   5.467  0.2801 -2.5576 -0.5279
 1953ESO     O130425   3.471   2.974   4.122 -0.0883  0.4731  0.2711
 1953ESO     O130426   3.697   3.031   4.097  0.0739 -0.1064  0.3962
 1953ESO     O130427   3.619   2.811   4.026 -0.1777  0.1663 -0.1393
 1953ESO      S30428   3.590   2.951   4.041  0.2754 -0.0102  0.2362
 1953ESO     O230429   3.552   2.998   3.897 -0.2943 -0.1632 -0.2230
 1953ESO    C1a30430   3.647   2.998   3.783 -0.6416  0.1069 -0.2349
 1953ESO    H1a30431   3.738   3.055   3.801 -2.6032 -0.7950  0.7944
 1953ESO    H1a30432   3.674   2.893   3.766  0.3271 -0.2390 -1.3654
 1953ESO    C2a30433   3.569   3.053   3.666 -0.2405  0.7730 -0.4810
 1953ESO    H2a30434   3.527   3.156   3.690  2.6150  1.7227  0.7479
 1953ESO    H2a30435   3.489   2.992   3.634 -2.1872  2.5203  0.4697
 1953ESO    H2a30436   3.633   3.065   3.580 -0.1371  1.6762 -1.3369
 1954ESO     O130437   2.625   1.679   2.162  0.1601 -0.4321 -0.5573
 1954ESO     O130438   2.444   1.849   2.173 -0.6851 -0.5525  0.5198
 1954ESO     O130439   2.462   1.708   1.981  0.2301  0.0071  0.1231
 1954ESO      S30440   2.492   1.721   2.124  0.2851  0.3776  0.2688
 1954ESO     O230441   2.405   1.615   2.194  0.0949 -0.1508 -0.0502
 1954ESO    C1a30442   2.388   1.620   2.339 -0.8280  0.4765  0.1842
 1954ESO    H1a30443   2.487   1.620   2.397 -0.5856 -0.3929 -0.1518
 1954ESO    H1a30444   2.326   1.705   2.369  1.4584  1.9005  0.5737
 1954ESO    C2a30445   2.308   1.507   2.376 -0.0954  0.1460 -0.1622
 1954ESO    H2a30446   2.369   1.457   2.451 -1.7507  1.3494 -0.2238
 1954ESO    H2a30447   2.287   1.440   2.297 -0.6981  1.4159 -1.5954
 1954ESO    H2a30448   2.216   1.534   2.421 -0.0075  1.6018 -1.5626
 1955ESO     O130449   5.462   2.193   4.835 -0.1053  0.8442  0.3943
 1955ESO     O130450   5.519   2.067   5.024  0.2313  0.3683  0.3808
 1955ESO     O130451   5.415   2.278   5.053  0.6411  0.3987 -0.1666
 1955ESO      S30452   5.427   2.163   4.968 -0.0651 -0.3709 -0.6039
 1955ESO     O230453   5.283   2.092   4.963  0.3278 -0.2896  0.1861
 1955ESO    C1a30454   5.219   2.057   5.087 -0.1515 -0.0890  0.2229
 1955ESO    H1a30455   5.177   1.962   5.082 -1.5427  1.6183 -0.3259
 1955ESO    H1a30456   5.297   2.046   5.159  0.1294  1.4149  3.1713
 1955ESO    C2a30457   5.121   2.163   5.132 -0.4081 -0.5954  0.6622
 1955ESO    H2a30458   5.100   2.161   5.244  2.4859  2.5656  0.9195
 1955ESO    H2a30459   5.027   2.156   5.088 -0.5987  0.2609 -1.1183
 1955ESO    H2a30460   5.154   2.266   5.113 -0.7366 -1.1802  2.0404
 1956ESO     O130461   3.388   1.723   5.776  0.2618  0.0332  0.7374
 1956ESO     O130462   3.482   1.528   5.888 -0.7746 -0.5540 -0.3390
 1956ESO     O130463   3.589   1.743   5.892 -0.3415  0.0093 -0.1037
 1956ESO      S30464   3.465   1.670   5.889  0.1004 -0.0301 -0.3982
 1956ESO     O230465   3.374   1.716   6.009  0.2342 -0.0089  0.0019
 1956ESO    C1a30466   3.244   1.657   6.012  0.9083  0.1635  0.3084
 1956ESO    H1a30467   3.198   1.663   5.908 -0.3195 -1.3906  1.5073
 1956ESO    H1a30468   3.248   1.554   6.039 -1.6833 -2.2431  1.8248
 1956ESO    C2a30469   3.167   1.735   6.112 -0.0492 -0.7555  0.1616
 1956ESO    H2a30470   3.222   1.744   6.210 -3.4519 -0.7263  0.5843
 1956ESO    H2a30471   3.073   1.684   6.131 -0.1571  0.4819  0.6328
 1956ESO    H2a30472   3.145   1.837   6.078 -0.0659  0.7424  1.2356
 1957ESO     O130473   4.222   4.887   4.827  0.0923 -0.0303 -0.4040
 1957ESO     O130474   4.084   5.070   4.903 -0.2336 -0.3740 -0.4927
 1957ESO     O130475   4.006   4.853   4.904 -0.6749 -0.2496  0.0133
 1957ESO      S30476   4.122   4.935   4.915 -0.0549 -0.0264 -0.0029
 1957ESO     O230477   4.177   4.919   5.056  0.5887  0.0642  0.2787
 1957ESO    C1a30478   4.185   4.790   5.124  0.4338 -0.6599 -0.7039
 1957ESO    H1a30479   4.152   4.717   5.052 -0.5208 -1.3054  2.9215
 1957ESO    H1a30480   4.290   4.772   5.161  1.0278  0.3482 -3.1578
 1957ESO    C2a30481   4.094   4.791   5.243 -1.2169 -0.2063  0.2967
 1957ESO    H2a30482   4.073   4.686   5.277  0.5494 -1.3868  0.6866
 1957ESO    H2a30483   4.009   4.831   5.195 -0.5665 -0.5918 -0.3362
 1957ESO    H2a30484   4.125   4.847   5.336 -0.6948 -1.2910  0.5827
 1958ESO     O130485   0.932   3.580   6.394  0.3783 -0.2294 -0.1148
 1958ESO     O130486   0.799   3.625   6.195  0.0338  0.2819  0.1017
 1958ESO     O130487   0.957   3.441   6.205  0.2870  0.1909  0.0828
 1958ESO      S30488   0.868   3.525   6.277 -0.0779 -0.2913  0.3110
 1958ESO     O230489   0.756   3.434   6.337  0.4300  0.3344 -0.5269
 1958ESO    C1a30490   0.657   3.361   6.261 -0.5789  0.2769  0.1252
 1958ESO    H1a30491   0.640   3.416   6.171  0.2899  0.0885  1.6898
 1958ESO    H1a30492   0.709   3.267   6.229  0.9477 -2.6564 -1.2982
 1958ESO    C2a30493   0.539   3.327   6.348  0.2900  0.1019  0.5193
 1958ESO    H2a30494   0.475   3.409   6.356  0.1471  0.3100  0.2495
 1958ESO    H2a30495   0.578   3.296   6.442  2.0593 -1.9604 -1.9413
 1958ESO    H2a30496   0.469   3.249   6.306 -0.3351 -3.1850 -1.3476
 1959ESO     O130497   4.704   3.199   2.341 -0.4122  0.0995  0.6953
 1959ESO     O130498   4.864   3.234   2.167  0.3710 -0.2824 -0.4641
 1959ESO     O130499   4.739   3.419   2.262  0.0104 -0.4089 -0.0994
 1959ESO      S30500   4.796   3.290   2.283  0.1034  0.0942  0.0352
 1959ESO     O230501   4.914   3.296   2.392 -0.1109 -0.2001 -0.7158
 1959ESO    C1a30502   4.951   3.423   2.448 -0.9686  0.0706  0.4735
 1959ESO    H1a30503   4.890   3.501   2.409 -0.3961  1.5360 -0.6009
 1959ESO    H1a30504   4.950   3.421   2.556 -2.3556  0.1019 -1.2593
 1959ESO    C2a30505   5.093   3.453   2.399  0.4368  0.1031  0.0207
 1959ESO    H2a30506   5.116   3.405   2.302  1.0629 -2.2716  0.8066
 1959ESO    H2a30507   5.149   3.399   2.469  0.6559  1.8901 -1.8750
 1959ESO    H2a30508   5.115   3.561   2.399 -1.7311 -1.4017  0.9989
 1960ESO     O130509   4.645   4.193   0.159 -0.0228 -0.3168  0.3409
 1960ESO     O130510   4.474   4.337   0.232 -0.1706  0.2924 -0.6880
 1960ESO     O130511   4.664   4.425   0.106 -0.4867  0.2779  0.2329
 1960ESO      S30512   4.574   4.315   0.130 -0.3039 -0.0978  0.0881
 1960ESO     O230513   4.502   4.294  -0.007  0.0109  0.2108  0.3283
 1960ESO    C1a30514   4.578   4.254  -0.121 -0.5385  0.2038 -0.0843
 1960ESO    H1a30515   4.648   4.327  -0.148  0.0349 -0.9074 -1.7190
 1960ESO    H1a30516   4.629   4.158  -0.104  0.1216  1.0331 -1.9435
 1960ESO    C2a30517   4.484   4.244  -0.239 -0.9387 -0.1214  0.2653
 1960ESO    H2a30518   4.550   4.227  -0.323  0.6396 -2.8059  0.4495
 1960ESO    H2a30519   4.424   4.334  -0.256 -3.1506 -1.8736 -0.0097
 1960ESO    H2a30520   4.423   4.160  -0.228  1.1141  1.3187 -4.6279
 1961ESO     O130521   5.427   1.856   5.791 -0.4208  0.4020 -0.1131
 1961ESO     O130522   5.385   1.622   5.833 -0.3893 -0.3557 -1.1083
 1961ESO     O130523   5.595   1.709   5.873 -0.0975  0.0763 -0.1265
 1961ESO      S30524   5.457   1.741   5.867  0.2768 -0.0207 -0.0225
 1961ESO     O230525   5.409   1.776   6.018  0.3687  0.1020 -0.0943
 1961ESO    C1a30526   5.423   1.674   6.117 -0.0892 -0.6125 -0.3555
 1961ESO    H1a30527   5.480   1.586   6.082 -0.8682  2.5298  1.0193
 1961ESO    H1a30528   5.469   1.717   6.213 -0.6700 -1.3998 -0.0840
 1961ESO    C2a30529   5.282   1.639   6.160  0.0804 -0.2400 -0.6044
 1961ESO    H2a30530   5.283   1.549   6.216 -0.1536 -0.6693 -3.5451
 1961ESO    H2a30531   5.220   1.623   6.075 -3.4543 -1.5942 -0.0112
 1961ESO    H2a30532   5.232   1.709   6.237 -2.4631  0.3037  1.5646
 1962ESO     O130533   3.682   5.395   4.417  0.8495  0.2208 -0.3561
 1962ESO     O130534   3.709   5.629   4.433 -0.0206  0.2056  0.5300
 1962ESO     O130535   3.552   5.517   4.575  0.7637  0.1408  0.4758
 1962ESO      S30536   3.675   5.508   4.503  0.1122  0.1153  0.0199
 1962ESO     O230537   3.787   5.489   4.608 -0.5462 -0.6563 -0.5934
 1962ESO    C1a30538   3.911   5.446   4.547  0.1747  0.2660 -0.5748
 1962ESO    H1a30539   3.915   5.455   4.439 -2.1213  1.2852 -0.4026
 1962ESO    H1a30540   3.992   5.495   4.593 -0.5911  0.3926  0.3580
 1962ESO    C2a30541   3.924   5.300   4.577 -0.1883 -0.0843  0.1627
 1962ESO    H2a30542   4.028   5.270   4.539 -0.8181  0.9278 -2.8506
 1962ESO    H2a30543   3.851   5.236   4.528  0.5197 -0.9136  1.7556
 1962ESO    H2a30544   3.910   5.294   4.687  0.4097 -0.0822 -1.8678
 1963ESO     O130545   1.211   0.196   5.769 -0.0665 -0.3546 -0.1659
 1963ESO     O130546   1.443   0.175   5.734  0.5558  0.1355  0.7375
 1963ESO     O130547   1.352   0.174   5.961 -0.8456 -0.4392 -0.2255
 1963ESO      S30548   1.332   0.142   5.820 -0.2625  0.1249  0.2186
 1963ESO     O230549   1.327  -0.017   5.814  0.3623  0.4810  0.7550
 1963ESO    C1a30550   1.445  -0.091   5.848 -0.0392 -0.0008 -0.6459
 1963ESO    H1a30551   1.495  -0.115   5.756  0.2458 -0.3113 -0.2963
 1963ESO    H1a30552   1.521  -0.046   5.917  0.7642  3.0136  2.8245
 1963ESO    C2a30553   1.401  -0.220   5.916 -0.1944  0.3034  0.4102
 1963ESO    H2a30554   1.339  -0.205   6.005 -0.8581 -1.9173  1.7094
 1963ESO    H2a30555   1.483  -0.287   5.934  1.8257  0.1803 -1.0088
 1963ESO    H2a30556   1.346  -0.289   5.851 -0.8052 -1.7186 -1.0281
 1964ESO     O130557   4.401   3.651   0.190  0.0576  0.2770  0.2922
 1964ESO     O130558   4.509   3.855   0.266 -0.4135  0.4023  0.0656
 1964ESO     O130559   4.468   3.682   0.419 -0.0998  0.2872 -0.6534
 1964ESO      S30560   4.494   3.712   0.279 -0.4812  0.0838 -0.0307
 1964ESO     O230561   4.634   3.656   0.243  0.5622  0.4105 -0.0809
 1964ESO    C1a30562   4.681   3.691   0.112 -0.2914 -0.0348  0.9180
 1964ESO    H1a30563   4.706   3.600   0.061 -0.9674  1.3698 -1.8462
 1964ESO    H1a30564   4.614   3.754   0.053  1.3208 -0.6769 -1.4635
 1964ESO    C2a30565   4.810   3.772   0.137 -0.0962 -0.3369 -0.6884
 1964ESO    H2a30566   4.871   3.784   0.053 -1.9121  1.8046 -3.0249
 1964ESO    H2a30567   4.865   3.731   0.225 -3.1432 -0.7988  0.2009
 1964ESO    H2a30568   4.775   3.870   0.159 -1.5355  2.1903  0.2846
 1965ESO     O130569   4.018   2.358   0.526 -0.0612 -0.2454  0.2611
 1965ESO     O130570   4.227   2.408   0.627 -0.0120  0.0135  0.2017
 1965ESO     O130571   4.070   2.587   0.584  0.5322  0.1697 -0.1456
 1965ESO      S30572   4.088   2.450   0.613  0.1472  0.4024  0.3440
 1965ESO     O230573   4.029   2.431   0.762 -0.7489 -0.1249 -0.0765
 1965ESO    C1a30574   3.887   2.464   0.789  1.1389 -0.5457 -0.1389
 1965ESO    H1a30575   3.880   2.511   0.887  1.0581 -1.3012 -0.1642
 1965ESO    H1a30576   3.850   2.545   0.721  2.1928 -0.2722  0.3992
 1965ESO    C2a30577   3.802   2.340   0.794 -0.5395 -0.8008  0.3810
 1965ESO    H2a30578   3.702   2.371   0.830 -1.4481  0.1706 -0.3197
 1965ESO    H2a30579   3.844   2.261   0.859  0.3426  0.4864 -3.0216
 1965ESO    H2a30580   3.782   2.294   0.695 -3.1577 -2.2340 -3.8102
 1966ESO     O130581   3.050   4.416   5.484 -0.1647 -0.0587 -0.0147
 1966ESO     O130582   3.067   4.642   5.400  0.5611  0.2993  0.2681
 1966ESO     O130583   2.855   4.550   5.448 -0.5074 -0.2088 -0.0958
 1966ESO      S30584   2.995   4.550   5.484  0.0138 -0.3190  0.1512
 1966ESO     O230585   3.010   4.599   5.631 -0.2184 -0.0627  0.3649
 1966ESO    C1a30586   2.927   4.540   5.728 -0.0580  0.0161 -0.3871
 1966ESO    H1a30587   2.883   4.456   5.679 -0.0181  0.7128  0.1545
 1966ESO    H1a30588   2.991   4.499   5.806 -0.1148 -0.6573 -2.3842
 1966ESO    C2a30589   2.833   4.645   5.771  0.7269  0.1226  0.4802
 1966ESO    H2a30590   2.876   4.701   5.857 -0.3935  0.2071 -0.1577
 1966ESO    H2a30591   2.736   4.605   5.805  0.6283  0.2579 -2.6373
 1966ESO    H2a30592   2.807   4.721   5.701 -0.3182 -1.7037 -2.2847
 1967ESO     O130593   1.633   2.505   4.756  0.0487  0.0705 -0.0436
 1967ESO     O130594   1.548   2.547   4.976 -0.3727  0.0346  0.6640
 1967ESO     O130595   1.785   2.564   4.922 -0.3471  0.3723  0.1480
 1967ESO      S30596   1.650   2.579   4.876 -0.2183  0.2909  0.0492
 1967ESO     O230597   1.639   2.728   4.829 -0.9992 -0.2713  0.0737
 1967ESO    C1a30598   1.513   2.789   4.784 -0.0870  0.2081  0.2487
 1967ESO    H1a30599   1.532   2.858   4.707 -1.9367  0.3677  0.4502
 1967ESO    H1a30600   1.458   2.702   4.747 -0.1732 -0.7796  2.4912
 1967ESO    C2a30601   1.455   2.858   4.906 -1.0136  0.0938  0.1551
 1967ESO    H2a30602   1.529   2.931   4.937  0.8077 -1.0393  0.9102
 1967ESO    H2a30603   1.447   2.791   4.984 -1.5878  2.3860 -2.3742
 1967ESO    H2a30604   1.352   2.893   4.896  1.7439 -3.2004  1.0814
 1968ESO     O130605   2.114   0.592   3.165 -0.7137  0.3641  0.1856
 1968ESO     O130606   2.140   0.646   3.400  0.0178 -0.6465 -0.1148
 1968ESO     O130607   2.326   0.658   3.248 -0.2633 -0.1878 -0.2411
 1968ESO      S30608   2.185   0.671   3.264  0.0179 -0.3374  0.1150
 1968ESO     O230609   2.157   0.827   3.221  0.6320  0.1004 -0.6460
 1968ESO    C1a30610   2.024   0.890   3.221  0.5487 -1.0976 -0.0989
 1968ESO    H1a30611   2.032   0.984   3.166 -0.0471  0.2139 -3.5634
 1968ESO    H1a30612   1.952   0.829   3.160  0.3445 -2.1078 -0.8471
 1968ESO    C2a30613   1.979   0.938   3.360 -0.3922  0.4671  0.4665
 1968ESO    H2a30614   1.886   0.979   3.348  1.2885  1.6921 -2.2197
 1968ESO    H2a30615   2.045   1.014   3.394  0.8179  0.9901 -0.8254
 1968ESO    H2a30616   1.976   0.863   3.434 -1.0737 -0.3417  1.8850
 1969ESO     O130617   0.053   4.741   2.030  0.3062  0.3816  0.0025
 1969ESO     O130618   0.094   4.534   2.130 -0.4916 -0.0022 -0.3386
 1969ESO     O130619   0.014   4.714   2.258  0.3241  0.2404  0.0647
 1969ESO      S30620   0.014   4.651   2.132  0.0772 -0.2409 -0.0030
 1969ESO     O230621  -0.135   4.600   2.103  0.5707 -0.2101 -0.0260
 1969ESO    C1a30622  -0.236   4.707   2.106  0.7072  0.5477 -0.1161
 1969ESO    H1a30623  -0.279   4.719   2.208 -0.7045  0.2571 -0.0710
 1969ESO    H1a30624  -0.200   4.814   2.080 -0.0422  1.0150 -2.3493
 1969ESO    C2a30625  -0.352   4.670   2.015  0.3212  0.4350 -0.3712
 1969ESO    H2a30626  -0.381   4.756   1.955  0.3804  2.9063  0.5829
 1969ESO    H2a30627  -0.443   4.627   2.061  2.1407  1.0370 -0.3699
 1969ESO    H2a30628  -0.314   4.594   1.943  1.5321 -0.5046  1.5882
 1970ESO     O130629   5.133   1.518   3.643  0.3286  0.3102 -0.5652
 1970ESO     O130630   5.253   1.680   3.771 -0.5135 -0.1173  0.1649
 1970ESO     O130631   5.274   1.670   3.531  0.2229 -0.1068  0.1521
 1970ESO      S30632   5.192   1.647   3.645  0.2299  0.0717  0.3173
 1970ESO     O230633   5.067   1.740   3.630  0.1419  0.0658  0.5142
 1970ESO    C1a30634   5.080   1.884   3.612  0.2320  0.2634  0.9797
 1970ESO    H1a30635   5.180   1.922   3.642  2.4547 -1.8867 -1.1149
 1970ESO    H1a30636   5.070   1.900   3.507 -3.0665  1.2014  1.3772
 1970ESO    C2a30637   4.978   1.951   3.700  0.6726 -0.4813 -0.1937
 1970ESO    H2a30638   5.000   1.930   3.806  0.6509  0.5403  0.6368
 1970ESO    H2a30639   4.875   1.910   3.696  0.5473  0.4991  0.2036
 1970ESO    H2a30640   4.975   2.057   3.696  0.4958 -1.2323 -1.7509
 1971ESO     O130641   3.904   5.417   2.289 -0.3550  0.0377  0.3737
 1971ESO     O130642   3.689   5.364   2.218  0.0763 -0.1958 -0.5496
 1971ESO     O130643   3.868   5.287   2.093  0.1513 -0.0681 -0.4589
 1971ESO      S30644   3.823   5.321   2.227  0.0024 -0.2680 -0.0357
 1971ESO     O230645   3.835   5.191   2.310 -0.1821 -0.3358 -0.5709
 1971ESO    C1a30646   3.969   5.139   2.338 -0.1107  0.9935  0.4878
 1971ESO    H1a30647   4.042   5.136   2.256 -0.8769 -1.5624 -2.3900
 1971ESO    H1a30648   4.025   5.204   2.409  0.7224  2.9732 -1.0630
 1971ESO    C2a30649   3.957   4.992   2.379 -0.7509  0.1136  0.5306
 1971ESO    H2a30650   3.942   4.973   2.483 -0.1879  1.4399 -0.4034
 1971ESO    H2a30651   4.045   4.930   2.349 -1.5668 -0.9373 -1.8637
 1971ESO    H2a30652   3.872   4.949   2.322  0.7926  0.1439 -3.1216
 1972ESO     O130653   5.648   3.862   0.608  0.0255  0.1539 -0.2863
 1972ESO     O130654   5.571   4.081   0.597  0.3110 -0.0078  0.5684
 1972ESO     O130655   5.810   4.042   0.598 -0.3384  0.0173  0.0491
 1972ESO      S30656   5.677   3.993   0.563  0.1337  0.3367 -0.1017
 1972ESO     O230657   5.676   3.976   0.413  0.5558  0.1194  0.2676
 1972ESO    C1a30658   5.717   4.100   0.337  0.1119 -0.4565 -0.0307
 1972ESO    H1a30659   5.766   4.177   0.403 -0.2639 -0.7254  0.2725
 1972ESO    H1a30660   5.785   4.081   0.257 -0.4198  3.0124  1.6048
 1972ESO    C2a30661   5.586   4.152   0.273  0.0305  0.5923  0.1922
 1972ESO    H2a30662   5.513   4.172   0.349  0.8428  0.1536 -1.9572
 1972ESO    H2a30663   5.542   4.080   0.197 -3.7650 -1.6104 -1.3520
 1972ESO    H2a30664   5.596   4.242   0.216 -2.1041  0.2186  0.5922
 1973ESO     O130665   0.105   5.720   4.646  0.1503  0.3633 -0.5010
 1973ESO     O130666  -0.064   5.675   4.486  0.3916  0.9597  0.6587
 1973ESO     O130667  -0.127   5.786   4.688  0.2074  0.2319  0.3414
 1973ESO      S30668  -0.024   5.762   4.592 -0.1263 -0.0794  0.1445
 1973ESO     O230669   0.004   5.900   4.532  0.3556 -0.4744  0.0420
 1973ESO    C1a30670  -0.099   5.959   4.451  0.4043 -0.0129 -0.1625
 1973ESO    H1a30671  -0.193   5.913   4.473 -2.1134 -0.6279 -0.1360
 1973ESO    H1a30672  -0.117   6.063   4.483  3.1211  0.0643  1.7756
 1973ESO    C2a30673  -0.051   5.953   4.308  0.1210 -0.3154  0.6490
 1973ESO    H2a30674  -0.132   5.940   4.238 -0.7610  2.5646  0.3574
 1973ESO    H2a30675   0.020   5.864   4.285  1.1828 -2.9823  1.2761
 1973ESO    H2a30676  -0.017   6.049   4.277  0.4245 -1.3919 -2.7969
 1974ESO     O130677   5.384   0.891   6.001 -0.1725  0.1568  0.6014
 1974ESO     O130678   5.586   0.985   5.892  0.0801  0.1799 -0.5214
 1974ESO     O130679   5.418   1.125   5.988 -1.0580 -0.0080 -0.0266
 1974ESO      S30680   5.486   0.997   5.992  0.0950 -0.2193 -0.1863
 1974ESO     O230681   5.565   1.001   6.124  0.6404 -0.6219  0.7352
 1974ESO    C1a30682   5.636   0.886   6.176  0.1526  0.4655 -0.1709
 1974ESO    H1a30683   5.652   0.816   6.094  1.4933 -1.7495 -2.2592
 1974ESO    H1a30684   5.736   0.909   6.220 -0.6008 -1.4947 -0.3999
 1974ESO    C2a30685   5.559   0.821   6.289  0.4462  0.4445 -0.0324
 1974ESO    H2a30686   5.617   0.725   6.318 -0.0444 -1.4514  1.5373
 1974ESO    H2a30687   5.462   0.785   6.263  0.7648  0.7017 -0.9914
 1974ESO    H2a30688   5.551   0.886   6.375  0.3484  0.4354  2.3078
 1975ESO     O130689   1.436   4.755   6.385 -0.4874 -0.5046 -0.0842
 1975ESO     O130690   1.304   4.571   6.452 -0.5227  0.2011 -0.0271
 1975ESO     O130691   1.290   4.771   6.575 -0.0601 -0.7704  0.1551
 1975ESO      S30692   1.311   4.714   6.443  0.4506 -0.1167  0.3785
 1975ESO     O230693   1.204   4.776   6.350  0.1587  0.6030  0.2692
 1975ESO    C1a30694   1.181   4.713   6.223 -0.1780  0.4526  0.2294
 1975ESO    H1a30695   1.271   4.684   6.162 -0.4969 -0.1110 -0.5049
 1975ESO    H1a30696   1.124   4.626   6.241 -1.0996  0.4649 -3.5597
 1975ESO    C2a30697   1.098   4.805   6.138  0.0992 -0.2213  0.4303
 1975ESO    H2a30698   1.159   4.890   6.122  2.0219 -1.7980 -1.0266
 1975ESO    H2a30699   1.004   4.834   6.181 -3.3456  1.5493  2.1173
 1975ESO    H2a30700   1.074   4.758   6.037  1.9274  1.5956 -0.9245
 1976ESO     O130701   1.240   6.683   4.420 -0.1160 -0.2554 -0.0240
 1976ESO     O130702   1.105   6.585   4.587  0.4280 -0.0483 -0.0780
 1976ESO     O130703   1.056   6.541   4.351  0.1630  0.2424  0.3052
 1976ESO      S30704   1.153   6.572   4.451 -0.2460 -0.2376 -0.0461
 1976ESO     O230705   1.243   6.442   4.451  0.1785 -0.6610 -0.1822
 1976ESO    C1a30706   1.314   6.405   4.330 -0.1019 -0.1032 -0.1460
 1976ESO    H1a30707   1.261   6.441   4.247  1.6955  1.0708 -0.2449
 1976ESO    H1a30708   1.420   6.447   4.329  1.4016  1.0002 -3.3024
 1976ESO    C2a30709   1.312   6.252   4.325  0.5389 -0.0096  0.1297
 1976ESO    H2a30710   1.345   6.208   4.233 -0.5557  0.4708 -0.0596
 1976ESO    H2a30711   1.205   6.227   4.343  0.4216 -0.4194  1.2761
 1976ESO    H2a30712   1.371   6.210   4.410 -0.5338 -0.5117  0.5490
 1977ESO     O130713   0.099   3.587   6.686 -0.3235  0.6133 -0.5115
 1977ESO     O130714   0.232   3.705   6.518  0.3297 -0.2299  0.6685
 1977ESO     O130715   0.162   3.479   6.489  0.0323 -0.3132  0.1046
 1977ESO      S30716   0.134   3.604   6.548  0.6295 -0.5529  0.0206
 1977ESO     O230717  -0.006   3.657   6.479 -0.4794 -0.1735 -0.1058
 1977ESO    C1a30718  -0.104   3.553   6.472  0.3251  0.8057 -0.5918
 1977ESO    H1a30719  -0.067   3.479   6.403 -0.2050  1.5018 -0.2415
 1977ESO    H1a30720  -0.114   3.509   6.578 -1.9405  0.5405  2.5902
 1977ESO    C2a30721  -0.231   3.627   6.436  0.3028 -0.9280 -0.1445
 1977ESO    H2a30722  -0.243   3.721   6.492  0.4988 -0.7093  0.1729
 1977ESO    H2a30723  -0.318   3.565   6.452 -0.4587  3.0251 -0.1756
 1977ESO    H2a30724  -0.229   3.660   6.331  0.7655  2.5381  0.8271
 1978ESO     O130725   5.494   6.307   0.014  0.6446 -0.9059  0.3622
 1978ESO     O130726   5.554   6.335   0.241  0.6360  0.4807  0.3682
 1978ESO     O130727   5.574   6.120   0.134  0.5643 -0.0125  0.0092
 1978ESO      S30728   5.579   6.263   0.120  0.1976  0.4846 -0.5911
 1978ESO     O230729   5.725   6.305   0.086 -0.2391  0.1716 -0.5272
 1978ESO    C1a30730   5.784   6.236  -0.027 -0.3335  0.2863  0.4535
 1978ESO    H1a30731   5.867   6.169  -0.003 -0.1665 -0.6031 -0.8812
 1978ESO    H1a30732   5.704   6.173  -0.068  2.4964  0.5066  2.6584
 1978ESO    C2a30733   5.820   6.345  -0.129  0.6940 -0.0116 -0.9500
 1978ESO    H2a30734   5.899   6.412  -0.092 -0.5719  0.8010 -3.0396
 1978ESO    H2a30735   5.732   6.411  -0.141  0.3856  1.1722  2.3972
 1978ESO    H2a30736   5.850   6.302  -0.220  1.6492 -0.4971  2.3645
 1979ESO     O130737   3.276   5.929   4.452  0.0909 -0.1895  0.0261
 1979ESO     O130738   3.174   5.845   4.642 -0.4647 -0.1090 -0.8388
 1979ESO     O130739   3.254   6.068   4.650 -0.8964 -0.3276  0.3419
 1979ESO      S30740   3.200   5.966   4.567  0.0989  0.2865 -0.0728
 1979ESO     O230741   3.064   6.025   4.515 -0.9087 -0.2059 -0.0576
 1979ESO    C1a30742   2.943   6.023   4.597 -0.8022  0.0347 -0.3861
 1979ESO    H1a30743   2.922   5.924   4.624 -0.9884  0.0866  1.9891
 1979ESO    H1a30744   2.961   6.073   4.694 -2.4047 -2.1732  2.8846
 1979ESO    C2a30745   2.824   6.075   4.523  0.0691 -0.3810 -0.2683
 1979ESO    H2a30746   2.836   6.174   4.493 -3.6812  1.6559 -1.2187
 1979ESO    H2a30747   2.736   6.078   4.594 -0.3486  3.3799  0.8895
 1979ESO    H2a30748   2.793   6.013   4.440 -1.1398  3.0899 -0.2414
 1980ESO     O130749   2.367   6.814   3.021 -0.2251  0.1533 -0.3772
 1980ESO     O130750   2.314   6.707   2.815 -0.2524 -0.4310 -0.3917
 1980ESO     O130751   2.167   6.695   2.998 -0.0287  1.0602  0.1940
 1980ESO      S30752   2.264   6.770   2.928 -0.3866 -0.1722 -0.1350
 1980ESO     O230753   2.193   6.898   2.877  0.2272  0.4918  0.9873
 1980ESO    C1a30754   2.271   7.001   2.816 -0.3042 -0.4358 -0.0083
 1980ESO    H1a30755   2.335   7.042   2.889  0.0151 -2.5731 -2.9308
 1980ESO    H1a30756   2.339   6.950   2.744  0.0791 -1.3283 -0.5294
 1980ESO    C2a30757   2.180   7.096   2.733 -0.4076 -0.7146  0.2941
 1980ESO    H2a30758   2.213   7.120   2.634  0.2709 -0.1632  1.6477
 1980ESO    H2a30759   2.158   7.187   2.782  1.0070 -0.4580 -1.0699
 1980ESO    H2a30760   2.077   7.066   2.713  0.9775  0.4904  0.5783
 1981ESO     O130761   3.186   0.683   2.623 -0.5953  0.3818 -0.0825
 1981ESO     O130762   3.408   0.756   2.596  0.4369  0.7815  0.0436
 1981ESO     O130763   3.365   0.532   2.620  0.2816 -0.2237  0.5096
 1981ESO      S30764   3.315   0.651   2.570 -0.2915  0.2610  0.2219
 1981ESO     O230765   3.308   0.636   2.417 -0.4108 -0.5737  0.5948
 1981ESO    C1a30766   3.228   0.724   2.334  0.3550 -0.4004  0.2943
 1981ESO    H1a30767   3.121   0.705   2.348 -3.1768 -2.1804 -1.7240
 1981ESO    H1a30768   3.249   0.830   2.363 -0.3700  1.0661 -0.5913
 1981ESO    C2a30769   3.276   0.705   2.195 -0.0228 -0.5203 -0.5186
 1981ESO    H2a30770   3.381   0.717   2.185 -0.2669  1.3393  1.0984
 1981ESO    H2a30771   3.224   0.767   2.121  0.3317  1.5118  1.9808
 1981ESO    H2a30772   3.245   0.605   2.169  0.0227  1.2642 -0.8303
 1982ESO     O130773   3.737   4.694   6.793  0.2746  0.0249 -0.2939
 1982ESO     O130774   3.777   4.869   6.937 -0.0414  0.4609  0.1364
 1982ESO     O130775   3.902   4.665   6.962 -0.5083 -0.4629 -0.1116
 1982ESO      S30776   3.838   4.758   6.871  0.0694 -0.2629  0.3681
 1982ESO     O230777   3.944   4.805   6.767 -0.0237  0.5321  0.5785
 1982ESO    C1a30778   4.027   4.711   6.697  0.4861  0.7242 -0.0629
 1982ESO    H1a30779   4.095   4.662   6.772 -0.0843 -0.5548 -0.2516
 1982ESO    H1a30780   3.970   4.634   6.629 -0.3164 -1.5398 -1.1458
 1982ESO    C2a30781   4.119   4.792   6.609  0.5191  0.1017 -0.1522
 1982ESO    H2a30782   4.057   4.857   6.539  2.2733 -1.6482 -0.0199
 1982ESO    H2a30783   4.184   4.728   6.550 -0.7452 -0.5466 -0.3102
 1982ESO    H2a30784   4.174   4.868   6.669  0.1944  0.6913  0.5906
 1983ESO     O130785   5.815   5.380   2.405 -0.1108 -0.0852  0.1087
 1983ESO     O130786   5.817   5.210   2.571 -0.2968 -0.2991 -0.2701
 1983ESO     O130787   5.961   5.393   2.597 -0.2851  0.0957 -0.5700
 1983ESO      S30788   5.835   5.348   2.545 -0.4159 -0.2840 -0.4296
 1983ESO     O230789   5.731   5.417   2.633 -0.3370 -0.2865 -0.2047
 1983ESO    C1a30790   5.593   5.394   2.604  0.6345 -0.3222 -0.2105
 1983ESO    H1a30791   5.547   5.479   2.559  2.0526 -2.8720  1.0885
 1983ESO    H1a30792   5.584   5.302   2.557  0.2824  1.6136  0.9244
 1983ESO    C2a30793   5.531   5.380   2.744 -1.9421  0.3279  0.6377
 1983ESO    H2a30794   5.424   5.371   2.739  0.6175  0.7362  0.0595
 1983ESO    H2a30795   5.546   5.471   2.798 -3.7146  0.2061 -0.2919
 1983ESO    H2a30796   5.577   5.290   2.790  3.7583  0.4826 -0.3318
 1984ESO     O130797   6.075   5.467   5.276  0.0658  0.2643  0.3508
 1984ESO     O130798   5.987   5.263   5.395  0.0906 -0.6162 -0.3453
 1984ESO     O130799   6.048   5.253   5.172  0.2354  0.1744  0.1443
 1984ESO      S30800   6.073   5.322   5.292 -0.0554 -0.1237 -0.2384
 1984ESO     O230801   6.216   5.281   5.334 -0.4717 -0.7165 -0.4235
 1984ESO    C1a30802   6.263   5.329   5.464  0.2062  0.2561 -0.2370
 1984ESO    H1a30803   6.306   5.435   5.465  1.2353  2.3739  1.2252
 1984ESO    H1a30804   6.172   5.329   5.526  1.2823 -1.4399 -2.9511
 1984ESO    C2a30805   6.366   5.233   5.515  0.3528  0.7923  0.0975
 1984ESO    H2a30806   6.421   5.265   5.605 -1.7905 -1.7022 -0.1066
 1984ESO    H2a30807   6.445   5.218   5.441  1.1040  2.1565  1.1574
 1984ESO    H2a30808   6.329   5.126   5.536  2.1136  0.6649  1.8639
 1985ESO     O130809   5.071   3.138   1.577 -0.0126  0.7421  0.2517
 1985ESO     O130810   5.160   3.278   1.406 -0.3986 -0.4472  0.3534
 1985ESO     O130811   5.240   3.058   1.426 -0.7423  0.3521 -0.1108
 1985ESO      S30812   5.127   3.144   1.441 -0.1659  0.4626 -0.5250
 1985ESO     O230813   5.025   3.097   1.331  0.0604 -0.1927 -0.0995
 1985ESO    C1a30814   4.961   2.972   1.359  0.5541  0.3064  0.6798
 1985ESO    H1a30815   5.043   2.906   1.391  2.1204 -2.0880 -0.4357
 1985ESO    H1a30816   4.888   2.983   1.439 -0.6203  1.6221  0.6438
 1985ESO    C2a30817   4.901   2.914   1.232 -0.0181 -0.0179 -0.1112
 1985ESO    H2a30818   4.799   2.952   1.219 -0.2104  0.8682  1.2024
 1985ESO    H2a30819   4.902   2.809   1.249  1.4642 -1.3350  0.5360
 1985ESO    H2a30820   4.954   2.946   1.141 -0.8957 -1.8093  2.4855
 1986ESO     O130821   3.329   4.174   0.035 -0.5349 -0.3259 -0.3799
 1986ESO     O130822   3.213   4.301   0.195 -0.2372  0.5762 -0.6672
 1986ESO     O130823   3.096   4.217  -0.000  0.6456  0.3351  0.2868
 1986ESO      S30824   3.199   4.196   0.098 -0.1801 -0.3123 -0.0055
 1986ESO     O230825   3.154   4.073   0.172  0.2149 -0.1102  0.7667
 1986ESO    C1a30826   3.110   3.953   0.102 -0.3667 -0.7755 -0.5494
 1986ESO    H1a30827   3.042   3.987   0.021  0.2051 -0.6261 -1.3638
 1986ESO    H1a30828   3.199   3.913   0.057  0.1966 -0.4847  2.0968
 1986ESO    C2a30829   3.043   3.858   0.201 -0.2589  0.0875 -0.7277
 1986ESO    H2a30830   2.975   3.903   0.273  3.0101 -0.5354  0.3630
 1986ESO    H2a30831   3.126   3.815   0.260 -1.9890  0.2338  1.1622
 1986ESO    H2a30832   2.992   3.774   0.155  0.2773 -1.6230  2.0320
 1987ESO     O130833   5.402   6.433   5.878  0.1052 -0.3042  0.0448
 1987ESO     O130834   5.560   6.372   6.042  1.0743 -0.1300 -0.0719
 1987ESO     O130835   5.333   6.369   6.100  0.2940 -0.0962  0.7274
 1987ESO      S30836   5.426   6.352   5.996  0.1622 -0.0657  0.3572
 1987ESO     O230837   5.412   6.204   5.955  0.6359  0.0964  0.1370
 1987ESO    C1a30838   5.516   6.148   5.867  0.3464 -0.3929  0.9127
 1987ESO    H1a30839   5.526   6.211   5.773  0.4712 -1.8402  1.6398
 1987ESO    H1a30840   5.615   6.156   5.924  0.2917 -2.2423  2.4133
 1987ESO    C2a30841   5.484   6.007   5.839  0.0070 -0.4267 -0.5064
 1987ESO    H2a30842   5.447   5.948   5.922 -0.4928  1.5782 -1.3275
 1987ESO    H2a30843   5.576   5.963   5.806 -0.6421 -0.6088  1.1599
 1987ESO    H2a30844   5.411   6.002   5.760  2.2377 -0.8532 -0.5071
 1988ESO     O130845   1.030   4.022   6.754  0.3226 -0.2575  0.1846
 1988ESO     O130846   0.807   3.935   6.790 -0.0035  0.3185 -0.9923
 1988ESO     O130847   0.935   4.039   6.972 -0.1998 -0.0517 -0.0303
 1988ESO      S30848   0.906   4.033   6.827 -0.1818  0.2057  0.3123
 1988ESO     O230849   0.846   4.170   6.792 -0.1830  1.1149 -0.3028
 1988ESO    C1a30850   0.720   4.200   6.858 -0.9596  0.2674  0.0986
 1988ESO    H1a30851   0.651   4.113   6.851 -1.1158  0.1885  2.3341
 1988ESO    H1a30852   0.748   4.237   6.958  0.8621 -0.9042  0.6785
 1988ESO    C2a30853   0.664   4.322   6.792 -0.2381 -0.7626 -0.2136
 1988ESO    H2a30854   0.567   4.346   6.829  2.1579 -2.1878 -2.2429
 1988ESO    H2a30855   0.654   4.314   6.682 -2.1662  1.1123  1.7734
 1988ESO    H2a30856   0.728   4.412   6.817  0.8608  2.5352  0.8230
 1989ESO     O130857   3.381   6.372   0.342  0.1850 -0.3027  0.3883
 1989ESO     O130858   3.231   6.241   0.474  0.2641  0.5557  0.0695
 1989ESO     O130859   3.175   6.295   0.245 -0.3712  0.0906 -0.3940
 1989ESO      S30860   3.278   6.268   0.342  0.1691 -0.0967  0.3419
 1989ESO     O230861   3.338   6.133   0.287  0.7580 -0.3096 -0.4155
 1989ESO    C1a30862   3.252   6.018   0.251  0.5443  0.0701 -0.2402
 1989ESO    H1a30863   3.231   5.956   0.333 -2.0321 -0.0909 -1.7000
 1989ESO    H1a30864   3.160   6.037   0.192 -2.0466 -2.0008 -0.2996
 1989ESO    C2a30865   3.330   5.943   0.153 -0.3020 -0.9986  0.1699
 1989ESO    H2a30866   3.264   5.880   0.088  0.3355 -0.5974  0.8313
 1989ESO    H2a30867   3.396   5.888   0.208  0.2869 -0.1683  1.1569
 1989ESO    H2a30868   3.399   6.000   0.085 -1.2159 -1.2665  2.9972
 1990ESO     O130869   6.296   5.950   0.539 -0.4531  0.4544 -0.2702
 1990ESO     O130870   6.103   6.029   0.416  0.2346 -0.1836 -0.1130
 1990ESO     O130871   6.269   6.176   0.511 -0.4170 -0.3069 -0.5022
 1990ESO      S30872   6.241   6.051   0.457 -0.0507  0.2872 -0.1444
 1990ESO     O230873   6.336   6.047   0.331  0.2521  0.1388  0.0429
 1990ESO    C1a30874   6.316   6.131   0.213 -0.2282  0.5049 -0.0885
 1990ESO    H1a30875   6.347   6.081   0.119  4.7082 -0.2305  0.0784
 1990ESO    H1a30876   6.209   6.169   0.218  0.6181 -0.8417 -0.1610
 1990ESO    C2a30877   6.422   6.241   0.226 -0.1461 -1.1827  0.4446
 1990ESO    H2a30878   6.527   6.216   0.198  3.3155 -0.1648 -1.4364
 1990ESO    H2a30879   6.436   6.274   0.324 -1.0190 -2.1167 -1.7648
 1990ESO    H2a30880   6.388   6.333   0.174 -0.0051  4.1379  0.3055
 1991ESO     O130881   4.250   2.338   1.403  0.0644 -0.7913  0.9964
 1991ESO     O130882   4.299   2.145   1.274 -0.3919  0.3612  1.0666
 1991ESO     O130883   4.372   2.358   1.203 -0.1265  0.4669 -0.6703
 1991ESO      S30884   4.340   2.276   1.314 -0.0489  0.2200  0.0000
 1991ESO     O230885   4.486   2.250   1.378  0.0720 -0.1114  0.3551
 1991ESO    C1a30886   4.477   2.167   1.494  0.9753 -0.2864  0.0073
 1991ESO    H1a30887   4.372   2.146   1.520  0.9168 -3.9628 -2.1929
 1991ESO    H1a30888   4.526   2.063   1.482  0.7913 -1.8257 -1.0379
 1991ESO    C2a30889   4.551   2.239   1.606  0.1880 -0.3042 -0.1311
 1991ESO    H2a30890   4.552   2.177   1.695 -2.2435  0.4207  3.1669
 1991ESO    H2a30891   4.500   2.336   1.639  4.0053 -1.3350  1.3873
 1991ESO    H2a30892   4.658   2.260   1.583  0.8076 -2.5349 -2.3463
 1992ESO     O130893   5.215   0.404   1.020  0.2223  0.3602  0.1204
 1992ESO     O130894   5.261   0.362   0.786 -0.2555 -0.0870  0.3240
 1992ESO     O130895   5.423   0.467   0.927 -0.1796 -0.0868 -0.0922
 1992ESO      S30896   5.314   0.374   0.921 -0.0302  0.1103  0.6197
 1992ESO     O230897   5.380   0.241   0.962 -0.2924  0.5617  0.0040
 1992ESO    C1a30898   5.312   0.115   0.949  0.0010 -0.2022  0.3043
 1992ESO    H1a30899   5.217   0.129   0.898 -0.3402 -0.9131 -0.8260
 1992ESO    H1a30900   5.373   0.043   0.890 -2.4708 -0.6141 -1.1432
 1992ESO    C2a30901   5.286   0.055   1.087 -0.2906  0.0996 -0.3365
 1992ESO    H2a30902   5.383   0.049   1.132  2.7535 -2.3204 -0.6372
 1992ESO    H2a30903   5.256  -0.052   1.081 -0.7157 -0.2729 -2.5495
 1992ESO    H2a30904   5.214   0.110   1.147  1.5884 -2.2536  1.0696
 1993ESO     O130905   4.861   4.933   3.049  0.3800  0.4807 -0.5549
 1993ESO     O130906   4.928   4.768   3.215 -0.1658  0.3293  0.2061
 1993ESO     O130907   4.713   4.876   3.224  0.4237  0.0015  0.8149
 1993ESO      S30908   4.819   4.831   3.143 -0.2709  0.0650  0.0253
 1993ESO     O230909   4.760   4.714   3.053  0.6787  0.0626  0.2127
 1993ESO    C1a30910   4.671   4.757   2.940 -0.6406 -0.4280  0.2298
 1993ESO    H1a30911   4.628   4.855   2.953  1.3727  1.8605 -0.0920
 1993ESO    H1a30912   4.738   4.771   2.854 -1.7876  0.3786  0.1312
 1993ESO    C2a30913   4.570   4.652   2.907  0.4152 -0.7950 -0.6543
 1993ESO    H2a30914   4.629   4.564   2.890 -0.6001 -0.8647 -0.1034
 1993ESO    H2a30915   4.524   4.679   2.814 -0.4191 -1.8961  0.7657
 1993ESO    H2a30916   4.492   4.633   2.976 -0.2096 -0.5236 -2.1137
 1994ESO     O130917   6.697   1.156   2.422 -0.1827  0.2281  0.3436
 1994ESO     O130918   6.708   1.137   2.659 -0.5271 -0.4239  0.2811
 1994ESO     O130919   6.580   1.307   2.555  0.0117  0.3360 -0.3265
 1994ESO      S30920   6.628   1.173   2.546  0.0911 -0.0935  0.0335
 1994ESO     O230921   6.503   1.073   2.544  0.0240 -0.5707 -0.5099
 1994ESO    C1a30922   6.511   0.933   2.500 -0.6398 -0.3086  0.1366
 1994ESO    H1a30923   6.594   0.924   2.432  1.2197  0.7881 -0.8176
 1994ESO    H1a30924   6.521   0.857   2.577 -0.8842  0.5806 -1.1457
 1994ESO    C2a30925   6.386   0.900   2.424 -0.7988 -0.7926 -0.0902
 1994ESO    H2a30926   6.300   0.926   2.493  0.8441 -1.2855  0.4869
 1994ESO    H2a30927   6.379   0.799   2.394  1.2480 -0.2389 -1.6494
 1994ESO    H2a30928   6.379   0.963   2.334  2.5097 -0.8571 -3.0064
 1995ESO     O130929   5.684   4.504   3.266  0.0714 -0.2396  0.2597
 1995ESO     O130930   5.817   4.673   3.366 -0.5672 -0.2479  0.3803
 1995ESO     O130931   5.765   4.486   3.487 -0.6752 -0.2341  0.4772
 1995ESO      S30932   5.792   4.536   3.353  0.3232  0.0324 -0.0606
 1995ESO     O230933   5.918   4.465   3.293  0.1107  0.0012  0.1591
 1995ESO    C1a30934   6.030   4.453   3.377  0.0697 -0.2266 -0.7521
 1995ESO    H1a30935   6.049   4.551   3.414 -0.0358 -1.2858  0.5465
 1995ESO    H1a30936   6.014   4.385   3.458  0.9494 -1.0023 -0.7651
 1995ESO    C2a30937   6.138   4.391   3.293  0.4551 -0.4209  1.0910
 1995ESO    H2a30938   6.137   4.453   3.203 -0.2802  1.6919 -0.1431
 1995ESO    H2a30939   6.118   4.288   3.247  1.0939  0.0729 -0.9465
 1995ESO    H2a30940   6.238   4.399   3.340  4.8346 -1.7850  0.9121
 1996ESO     O130941   1.003   5.842   4.084  0.0690  0.2589 -0.1134
 1996ESO     O130942   0.939   5.971   4.268 -0.3350  0.5884  0.1499
 1996ESO     O130943   0.980   5.733   4.292 -0.3565  0.1732  0.0593
 1996ESO      S30944   1.011   5.855   4.227 -0.6000  0.1866  0.1167
 1996ESO     O230945   1.161   5.879   4.249 -0.6623 -0.5659  0.5901
 1996ESO    C1a30946   1.214   5.916   4.376  1.1440  0.4761  0.2829
 1996ESO    H1a30947   1.186   6.021   4.395 -0.5186  1.0351  0.0709
 1996ESO    H1a30948   1.154   5.856   4.444 -0.6458 -0.8604 -1.9362
 1996ESO    C2a30949   1.360   5.889   4.385 -0.0186  0.9335  0.8571
 1996ESO    H2a30950   1.382   5.785   4.392  0.2364  1.0052 -0.4649
 1996ESO    H2a30951   1.401   5.936   4.476  2.7502  1.6056 -1.1964
 1996ESO    H2a30952   1.416   5.934   4.304  0.1781  0.6250  0.4705
 1997ESO     O130953   3.771   0.933   6.715 -0.2397 -0.4416 -0.3798
 1997ESO     O130954   3.645   1.027   6.539 -0.4225  0.2292 -0.5734
 1997ESO     O130955   3.878   0.977   6.509  0.3004 -0.3171  0.8080
 1997ESO      S30956   3.755   0.938   6.572 -0.1566 -0.4091 -0.1121
 1997ESO     O230957   3.728   0.793   6.528 -0.3725 -0.2444  0.1135
 1997ESO    C1a30958   3.606   0.735   6.570  0.7874  0.7664 -0.2457
 1997ESO    H1a30959   3.551   0.801   6.634  2.3503  2.5813  0.1461
 1997ESO    H1a30960   3.556   0.711   6.474 -2.1815  1.9668 -0.4658
 1997ESO    C2a30961   3.654   0.619   6.647  0.6545  0.6638 -0.3157
 1997ESO    H2a30962   3.571   0.542   6.658  0.5916 -1.3053  0.7996
 1997ESO    H2a30963   3.678   0.655   6.749  1.6934  2.2275  1.1124
 1997ESO    H2a30964   3.738   0.560   6.606  1.4479 -2.5807  2.5276
 1998ESO     O130965   5.586   2.783   3.328  0.4975  0.9778  0.4744
 1998ESO     O130966   5.768   2.876   3.465  0.6512 -0.5033  0.0998
 1998ESO     O130967   5.791   2.670   3.342  0.2778 -0.6933 -0.6414
 1998ESO      S30968   5.731   2.798   3.345 -0.4220 -0.2442  0.0496
 1998ESO     O230969   5.781   2.883   3.221 -0.2806  0.6540  0.4733
 1998ESO    C1a30970   5.748   2.831   3.088  0.9021 -0.7881 -0.0142
 1998ESO    H1a30971   5.832   2.849   3.023  1.5199  1.2685  0.7843
 1998ESO    H1a30972   5.722   2.726   3.096  1.8401 -1.7860  0.8269
 1998ESO    C2a30973   5.640   2.916   3.032 -0.0990 -0.4646  0.2433
 1998ESO    H2a30974   5.621   2.903   2.923 -3.5765  2.9337 -0.5913
 1998ESO    H2a30975   5.662   3.019   3.039  1.1082 -1.7567  0.1351
 1998ESO    H2a30976   5.545   2.900   3.087 -0.0623 -0.3189  0.5399
 1999ESO     O130977   5.267   3.041   3.821 -0.1601 -0.7165  0.2819
 1999ESO     O130978   5.050   3.027   3.935 -0.6061 -0.3413  0.3868
 1999ESO     O130979   5.152   2.834   3.839 -0.0564 -0.0434 -0.1468
 1999ESO      S30980   5.177   2.962   3.897 -0.0348  0.2664 -0.1078
 1999ESO     O230981   5.256   2.919   4.030 -0.0035 -0.4165  0.3402
 1999ESO    C1a30982   5.317   3.022   4.102  0.6181  1.2864 -0.1384
 1999ESO    H1a30983   5.283   3.122   4.072 -0.2445  1.6882 -3.3155
 1999ESO    H1a30984   5.299   3.009   4.208 -0.1536 -1.6003  1.0910
 1999ESO    C2a30985   5.468   3.005   4.084 -0.1854 -0.7537 -0.2225
 1999ESO    H2a30986   5.525   3.092   4.113  0.5257 -0.8713  0.1233
 1999ESO    H2a30987   5.502   2.975   3.982  2.2116  2.4667 -3.7901
 1999ESO    H2a30988   5.513   2.928   4.154  0.4253 -1.5069  2.6874
 2000ESO     O130989   0.053   2.229   3.331 -0.0722  0.4952  0.0887
 2000ESO     O130990   0.051   2.466   3.355  0.0790  0.4876 -0.0769
 2000ESO     O130991   0.103   2.370   3.148 -0.3683 -0.6059  0.1075
 2000ESO      S30992   0.029   2.358   3.266 -0.5544 -0.3931 -0.2412
 2000ESO     O230993  -0.128   2.368   3.222 -0.1058  0.4959  0.2338
 2000ESO    C1a30994  -0.184   2.488   3.148 -0.7849  0.8712 -0.0849
 2000ESO    H1a30995  -0.289   2.506   3.170 -0.3191 -0.8272  3.0095
 2000ESO    H1a30996  -0.121   2.568   3.181 -0.4806  1.1462  0.4757
 2000ESO    C2a30997  -0.169   2.467   2.993 -0.0075  0.0592  0.2964
 2000ESO    H2a30998  -0.225   2.547   2.941  1.2505 -2.0027 -0.9706
 2000ESO    H2a30999  -0.219   2.376   2.965  0.2660  0.6420  0.0880
 2000ESO    H2a31000  -0.064   2.462   2.956  0.0396  2.8696 -1.8123
   6.81869   6.81869   6.81869
