;
;     [EMIM][EtSO4] ionic liquid Topology File
;
;     EMIM+ cation AMBER Force Field Topology File
;
;     Parameters according to the original paper 
;     de Andrade et. al. (2002) JPC B 106 p. 13344.
;     Modified according to Muller-Plathe 2007 and adjusted to fit the 
;     experimental parameters of the EMImBF4 ionic liquid at 298.15 K.
;     
;     Boltzmann weighted RESP charges for [EMIM][EtSO4] ion pair.
;
;     References:
;
;     Zhao, W.; Eslami, H.; Cavalcanti, W. L.; Müller-Plathe, F. A Refined All-Atom Model for the Ionic
;     Liquid 1-n-Butyl 3-Methylimidazolium bis(Trifuoromethylsulfonyl)imide [bmim][Tf2N].
;     Z. Phys. Chem. 2007, 221, 1647-1662.
;     https://doi.org/10.1524/zpch.2007.221.11-12.1647
;
;     Elvis S. Böes, Caio L. Firme, Jones de Andrade, Hubert Stassen.
;     Thermophysical properties of [EMIM][BF4] and [EMIM][EtSO4]
;     mixtures with molecular solvents from a charge-transfer-informed
;     force field.
;     Journal of Chemical & Engineering Data 2026 xxxx xxxx.
;     https://doi.org/xxxx.xxxx
;
;     LAST UPDATED 31 AUG 2026.
;
  
[ moleculetype ]
; Name                     nrexcl
  EMIM+                    3
  
[ atoms ]
;    nr   type   resnr  residue  atom   cgnr    charge    mass
      1   NA     1      EMI     N1      1        0.093330 14.0067
      2   CR     1      EMI     C2      2       -0.189413 12.0110
      3   NA     1      EMI     N3      3        0.254521 14.0067
      4   CW     1      EMI     C4      4       -0.238198 12.0110
      5   CW     1      EMI     C5      5       -0.176143 12.0110
      6   H5     1      EMI     H2      2        0.228961  1.0080
      7   H4     1      EMI     H4      4        0.227594  1.0080
      8   H4     1      EMI     H5      5        0.203551  1.0080
      9   CT     1      EMI     C1'     6       -0.320580 12.0110
     10   H1     1      EMI     H1'     6        0.148142  1.0080
     11   H1     1      EMI     H1'     6        0.148142  1.0080
     12   H1     1      EMI     H1'     6        0.148142  1.0080
     13   CT     1      EMI     C1"     7        0.104423 12.0110
     14   H1     1      EMI     H1"     7        0.055921  1.0080
     15   H1     1      EMI     H1"     7        0.055921  1.0080
     16   CT     1      EMI     C2"     8       -0.222151 12.0110 
     17   HC     1      EMI     H2"     8        0.076845  1.0080
     18   HC     1      EMI     H2"     8        0.076845  1.0080
     19   HC     1      EMI     H2"     8        0.076845  1.0080
  
[ bonds ]
;  ai    aj funct    b0 (nm)      kb (kJ/mol.nm^2)
;Main Ring:
    1     2     1
    2     3     1
    3     4     1
    4     5     1
    5     1     1
;Ring Hydrogens:
    2     6     1
    4     7     1
    5     8     1
;Methyl:
    9     3     1
    9    10     1
    9    11     1
    9    12     1
;n-Buthyl:
   13     1     1
   13    14     1
   13    15     1
   13    16     1
   16    17     1
   16    18     1
   16    19     1

[ pairs ]
;  ai    al funct     sigma (nm)  epsilon (kJ/mol)
;Main Ring:
;   5     3     1 ;Five Member Ring "1-4" Pair
    5     6     1
   13     3     1
   13     6     1
;   1     4     1 ;Five Member Ring "1-4" Pair
    1     9     1
    6     4     1
    6     9     1
;   2     5     1 ;Five Member Ring "1-4" Pair
    2     7     1
    9     5     1
    9     7     1
;   3     1     1 ;Five Member Ring "1-4" Pair
    3     8     1
    7     1     1
    7     8     1
;   4     2     1 ;Five Member Ring "1-4" Pair
    4    13     1
    8     2     1
    8    13     1
;Methyl:
    2    10     1
    2    11     1
    2    12     1
    4    10     1
    4    11     1
    4    12     1
;n-Buthyl:
    2    14     1
    2    15     1
    2    16     1
    5    14     1
    5    15     1
    5    16     1
    1    17     1
    1    18     1
    1    19     1
   14    17     1
   14    18     1
   14    19     1
   15    17     1
   15    18     1
   15    19     1

[ angles ]
;  ai    aj    ak funct    th0 (degree)      kb (kJ/mol.rad^2)
;Main Ring:
    2     1     5     1
    2     1    13     1
    5     1    13     1
    1     2     3     1
    1     2     6     1
    3     2     6     1
    2     3     4     1
    2     3     9     1
    4     3     9     1
    3     4     5     1
    3     4     7     1
    5     4     7     1
    1     5     4     1
    1     5     8     1
    4     5     8     1
;Methyl:
    3     9    10     1
    3     9    11     1
    3     9    12     1
   10     9    11     1
   10     9    12     1
   11     9    12     1
;n-Buthyl:
    1    13    14     1
    1    13    15     1
    1    13    16     1
   14    13    15     1
   14    13    16     1
   15    13    16     1
   13    16    17     1
   13    16    18     1
   13    16    19     1
   17    16    18     1
   17    16    19     1
   18    16    19     1
  
[ dihedrals ]
;  ai    aj    ak    al funct    phi (degree)      cp (kJ/mol.rad^2)       mult(n)
;Methyl:
    2     3     9    10     9
    2     3     9    11     9
    2     3     9    12     9
    4     3     9    10     9
    4     3     9    11     9
    4     3     9    12     9
;n-Buthyl:
    2     1    13    14     9
    2     1    13    15     9
    2     1    13    16     9
    5     1    13    14     9
    5     1    13    15     9
    5     1    13    16     9
    1    13    16    17     9
    1    13    16    18     9
    1    13    16    19     9
   14    13    16    17     9
   14    13    16    18     9
   14    13    16    19     9
   15    13    16    17     9
   15    13    16    18     9
   15    13    16    19     9
;Main Ring Proper Dihedrals:
    5     1     2     3     9
    5     1     2     6     9
   13     1     2     3     9
   13     1     2     6     9
    1     2     3     4     9
    1     2     3     9     9
    6     2     3     4     9
    6     2     3     9     9
    2     3     4     5     9
    2     3     4     7     9
    9     3     4     5     9
    9     3     4     7     9
    3     4     5     1     9
    3     4     5     8     9
    7     4     5     1     9
    7     4     5     8     9
    4     5     1     2     9
    4     5     1    13     9
    8     5     1     2     9
    8     5     1    13     9
;Main Ring Improper Dihedrals:
;   1     3     2     6     4;  180.000000    4.602400    2.000000
;   3     1     2     6     4;  180.000000    4.602400    2.000000
    6     2     3     1     4
    6     2     1     3     4
;   3     5     4     7     4;  180.000000    4.602400    2.000000
;   5     3     4     7     4;  180.000000    4.602400    2.000000
    7     4     5     3     4
    7     4     3     5     4
;   1     4     5     8     4;  180.000000    4.602400    2.000000
;   4     1     5     8     4;  180.000000    4.602400    2.000000
    8     5     4     1     4
    8     5     1     4     4
;C-N-X^Y:
;   2     5     1    13     4;  180.000000    4.184000    2.000000
;   5     2     1    13     4;  180.000000    4.184000    2.000000
   13     1     5     2     4
   13     1     2     5     4
;   2     4     3     9     4;  180.000000    4.184000    2.000000
;   4     2     3     9     4;  180.000000    4.184000    2.000000
    9     3     4     2     4
    9     3     2     4     4
